Title="TOUGHREACT V3.30-OMP flowvector.tec: Liq & Gas Fluxes (kg/s/m^2), Pore Velocities (m/s), & Heat Fluxes (J/s/m2)"                                                                                                                                                                                                                                                                                                                                                                                                                                                                                                                                                                                                                                                                                                         
Variables= "X(m)"     "Y(m)"      "Z(m)"     "FluxLiq"   "FluxLiq_X"   "FluxLiq_Y"   "FluxLiq_Z"   "PorVelLiq"  "PorVelLiqX"  "PorVelLiqY"  "PorVelLiqZ"     "FluxGas"   "FluxGas_X"   "FluxGas_Y"   "FluxGas_Z"   "PorVelGas"  "PorVelGasX"  "PorVelGasY"  "PorVelGasZ"    "HeatFlux"  "HeatFlux_X"  "HeatFlux_Y"  "HeatFlux_Z"                                                                                                                                                                                                                                                                                                                                                                                                                                                                                                
Zone T= "1.00000000E+11 sec" I=     9 J=    10 K=    23 F=Point
  1.250000E+02  1.250000E+02 -5.425000E+03  2.985855E-09 -4.059887E-10  5.311063E-10 -2.910057E-09  1.631279E-11 -2.222353E-12  2.907430E-12 -1.589702E-11  0.000000E+00  0.000000E+00  0.000000E+00  0.000000E+00  0.000000E+00  0.000000E+00  0.000000E+00  0.000000E+00  4.543161E-02  6.444841E-04 -6.596756E-04  4.542225E-02                                                                                                                                                                                                                                                                                                                                                                                                                                                                                              
  3.750000E+02  1.250000E+02 -5.425000E+03  3.240648E-09 -9.592965E-10  5.170739E-10 -3.051915E-09  1.770596E-11 -5.250943E-12  2.830436E-12 -1.667085E-11  0.000000E+00  0.000000E+00  0.000000E+00  0.000000E+00  0.000000E+00  0.000000E+00  0.000000E+00  0.000000E+00  4.563942E-02  1.508376E-03 -6.358013E-04  4.561006E-02                                                                                                                                                                                                                                                                                                                                                                                                                                                                                              
  6.250000E+02  1.250000E+02 -5.425000E+03  3.385611E-09 -9.625111E-10  4.962086E-10 -3.207758E-09  1.849626E-11 -5.268271E-12  2.716011E-12 -1.752085E-11  0.000000E+00  0.000000E+00  0.000000E+00  0.000000E+00  0.000000E+00  0.000000E+00  0.000000E+00  0.000000E+00  4.581840E-02  1.495011E-03 -5.998084E-04  4.579007E-02                                                                                                                                                                                                                                                                                                                                                                                                                                                                                              
  8.750000E+02  1.250000E+02 -5.425000E+03  3.378252E-09 -4.813662E-10  4.798318E-10 -3.309174E-09  1.845301E-11 -2.634634E-12  2.626250E-12 -1.807416E-11  0.000000E+00  0.000000E+00  0.000000E+00  0.000000E+00  0.000000E+00  0.000000E+00  0.000000E+00  0.000000E+00  4.590489E-02  7.423652E-04 -5.712534E-04  4.589533E-02                                                                                                                                                                                                                                                                                                                                                                                                                                                                                              
  1.050000E+03  1.250000E+02 -5.425000E+03  3.355944E-09  4.948361E-15  4.777921E-10 -3.321757E-09  1.833063E-11  2.708275E-17  2.615092E-12 -1.814313E-11  0.000000E+00  0.000000E+00  0.000000E+00  0.000000E+00  0.000000E+00  0.000000E+00  0.000000E+00  0.000000E+00  4.591233E-02  3.515822E-09 -5.677006E-04  4.590882E-02                                                                                                                                                                                                                                                                                                                                                                                                                                                                                              
  1.225000E+03  1.250000E+02 -5.425000E+03  3.378258E-09  4.813763E-10  4.798534E-10 -3.309176E-09  1.845304E-11  2.634689E-12  2.626367E-12 -1.807416E-11  0.000000E+00  0.000000E+00  0.000000E+00  0.000000E+00  0.000000E+00  0.000000E+00  0.000000E+00  0.000000E+00  4.590489E-02 -7.423420E-04 -5.712366E-04  4.589533E-02                                                                                                                                                                                                                                                                                                                                                                                                                                                                                              
  1.475000E+03  1.250000E+02 -5.425000E+03  3.385635E-09  9.624980E-10  4.962246E-10 -3.207784E-09  1.849638E-11  5.268199E-12  2.716099E-12 -1.752099E-11  0.000000E+00  0.000000E+00  0.000000E+00  0.000000E+00  0.000000E+00  0.000000E+00  0.000000E+00  0.000000E+00  4.581837E-02 -1.495019E-03 -5.998038E-04  4.579004E-02                                                                                                                                                                                                                                                                                                                                                                                                                                                                                              
  1.725000E+03  1.250000E+02 -5.425000E+03  3.240621E-09  9.592744E-10  5.170831E-10 -3.051891E-09  1.770580E-11  5.250822E-12  2.830486E-12 -1.667071E-11  0.000000E+00  0.000000E+00  0.000000E+00  0.000000E+00  0.000000E+00  0.000000E+00  0.000000E+00  0.000000E+00  4.563944E-02 -1.508412E-03 -6.357897E-04  4.561007E-02                                                                                                                                                                                                                                                                                                                                                                                                                                                                                              
  1.975000E+03  1.250000E+02 -5.425000E+03  2.985861E-09  4.059850E-10  5.311247E-10 -2.910060E-09  1.631282E-11  2.222333E-12  2.907531E-12 -1.589703E-11  0.000000E+00  0.000000E+00  0.000000E+00  0.000000E+00  0.000000E+00  0.000000E+00  0.000000E+00  0.000000E+00  4.543162E-02 -6.444926E-04 -6.596590E-04  4.542226E-02                                                                                                                                                                                                                                                                                                                                                                                                                                                                                              
  1.250000E+02  1.250000E+02 -5.225000E+03  1.014168E-08 -3.192596E-10  3.715574E-10 -1.012984E-08  5.513361E-11 -1.741727E-12  2.027188E-12 -5.506879E-11  0.000000E+00  0.000000E+00  0.000000E+00  0.000000E+00  0.000000E+00  0.000000E+00  0.000000E+00  0.000000E+00  1.606569E-01  9.454351E-04 -8.378176E-04  1.606519E-01                                                                                                                                                                                                                                                                                                                                                                                                                                                                                              
  3.750000E+02  1.250000E+02 -5.225000E+03  1.064701E-08 -7.348964E-10  3.606246E-10 -1.061549E-08  5.787591E-11 -4.009089E-12  1.967384E-12 -5.770336E-11  0.000000E+00  0.000000E+00  0.000000E+00  0.000000E+00  0.000000E+00  0.000000E+00  0.000000E+00  0.000000E+00  1.615839E-01  2.151029E-03 -8.023557E-04  1.615676E-01                                                                                                                                                                                                                                                                                                                                                                                                                                                                                              
  6.250000E+02  1.250000E+02 -5.225000E+03  1.113860E-08 -7.164649E-10  3.447413E-10 -1.111019E-08  6.054258E-11 -3.908324E-12  1.880571E-12 -6.038702E-11  0.000000E+00  0.000000E+00  0.000000E+00  0.000000E+00  0.000000E+00  0.000000E+00  0.000000E+00  0.000000E+00  1.623590E-01  2.063786E-03 -7.497623E-04  1.623442E-01                                                                                                                                                                                                                                                                                                                                                                                                                                                                                              
  8.750000E+02  1.250000E+02 -5.225000E+03  1.143536E-08 -3.540966E-10  3.327109E-10 -1.142503E-08  6.215245E-11 -1.931523E-12  1.814866E-12 -6.209591E-11  0.000000E+00  0.000000E+00  0.000000E+00  0.000000E+00  0.000000E+00  0.000000E+00  0.000000E+00  0.000000E+00  1.627809E-01  1.009937E-03 -7.088276E-04  1.627762E-01                                                                                                                                                                                                                                                                                                                                                                                                                                                                                              
  1.050000E+03  1.250000E+02 -5.225000E+03  1.147155E-08  3.558348E-15  3.312581E-10 -1.146677E-08  6.234997E-11  1.940949E-17  1.806964E-12 -6.232378E-11  0.000000E+00  0.000000E+00  0.000000E+00  0.000000E+00  0.000000E+00  0.000000E+00  0.000000E+00  0.000000E+00  1.628397E-01  5.753399E-09 -7.038340E-04  1.628382E-01                                                                                                                                                                                                                                                                                                                                                                                                                                                                                              
  1.225000E+03  1.250000E+02 -5.225000E+03  1.143537E-08  3.540870E-10  3.327352E-10 -1.142504E-08  6.215251E-11  1.931471E-12  1.814999E-12 -6.209597E-11  0.000000E+00  0.000000E+00  0.000000E+00  0.000000E+00  0.000000E+00  0.000000E+00  0.000000E+00  0.000000E+00  1.627809E-01 -1.009937E-03 -7.088073E-04  1.627762E-01                                                                                                                                                                                                                                                                                                                                                                                                                                                                                              
  1.475000E+03  1.250000E+02 -5.225000E+03  1.113862E-08  7.164724E-10  3.447618E-10 -1.111021E-08  6.054269E-11  3.908365E-12  1.880683E-12 -6.038712E-11  0.000000E+00  0.000000E+00  0.000000E+00  0.000000E+00  0.000000E+00  0.000000E+00  0.000000E+00  0.000000E+00  1.623590E-01 -2.063780E-03 -7.497527E-04  1.623441E-01                                                                                                                                                                                                                                                                                                                                                                                                                                                                                              
  1.725000E+03  1.250000E+02 -5.225000E+03  1.064699E-08  7.348912E-10  3.606227E-10 -1.061547E-08  5.787581E-11  4.009060E-12  1.967374E-12 -5.770326E-11  0.000000E+00  0.000000E+00  0.000000E+00  0.000000E+00  0.000000E+00  0.000000E+00  0.000000E+00  0.000000E+00  1.615839E-01 -2.151034E-03 -8.023557E-04  1.615676E-01                                                                                                                                                                                                                                                                                                                                                                                                                                                                                              
  1.975000E+03  1.250000E+02 -5.225000E+03  1.014168E-08  3.192337E-10  3.715847E-10 -1.012984E-08  5.513363E-11  1.741586E-12  2.027337E-12 -5.506881E-11  0.000000E+00  0.000000E+00  0.000000E+00  0.000000E+00  0.000000E+00  0.000000E+00  0.000000E+00  0.000000E+00  1.606569E-01 -9.454513E-04 -8.378024E-04  1.606519E-01                                                                                                                                                                                                                                                                                                                                                                                                                                                                                              
  1.250000E+02  1.250000E+02 -4.975000E+03  1.719270E-08 -3.095786E-10  2.263023E-10 -1.718842E-08  9.263386E-11 -1.671316E-12  1.221871E-12 -9.261072E-11  0.000000E+00  0.000000E+00  0.000000E+00  0.000000E+00  0.000000E+00  0.000000E+00  0.000000E+00  0.000000E+00  2.814234E-01  1.920817E-03 -1.123806E-03  2.814146E-01                                                                                                                                                                                                                                                                                                                                                                                                                                                                                              
  3.750000E+02  1.250000E+02 -4.975000E+03  1.813941E-08 -6.518184E-10  2.155830E-10 -1.812641E-08  9.771385E-11 -3.518715E-12  1.163815E-12 -9.764354E-11  0.000000E+00  0.000000E+00  0.000000E+00  0.000000E+00  0.000000E+00  0.000000E+00  0.000000E+00  0.000000E+00  2.843823E-01  4.013786E-03 -1.049268E-03  2.843521E-01                                                                                                                                                                                                                                                                                                                                                                                                                                                                                              
  6.250000E+02  1.250000E+02 -4.975000E+03  1.892603E-08 -5.744831E-10  2.019452E-10 -1.891623E-08  1.019363E-10 -3.100913E-12  1.090033E-12 -1.018833E-10  0.000000E+00  0.000000E+00  0.000000E+00  0.000000E+00  0.000000E+00  0.000000E+00  0.000000E+00  0.000000E+00  2.861382E-01  3.477571E-03 -9.465033E-04  2.861155E-01                                                                                                                                                                                                                                                                                                                                                                                                                                                                                              
  8.750000E+02  1.250000E+02 -4.975000E+03  1.940511E-08 -2.766441E-10  1.934407E-10 -1.940218E-08  1.045087E-10 -1.493152E-12  1.044055E-12 -1.044928E-10  0.000000E+00  0.000000E+00  0.000000E+00  0.000000E+00  0.000000E+00  0.000000E+00  0.000000E+00  0.000000E+00  2.869858E-01  1.641315E-03 -8.729381E-04  2.869798E-01                                                                                                                                                                                                                                                                                                                                                                                                                                                                                              
  1.050000E+03  1.250000E+02 -4.975000E+03  1.949347E-08 -9.722416E-15  1.928180E-10 -1.949252E-08  1.049840E-10 -5.247349E-17  1.040708E-12 -1.049788E-10  0.000000E+00  0.000000E+00  0.000000E+00  0.000000E+00  0.000000E+00  0.000000E+00  0.000000E+00  0.000000E+00  2.872089E-01 -8.244902E-09 -8.650829E-04  2.872076E-01                                                                                                                                                                                                                                                                                                                                                                                                                                                                                              
  1.225000E+03  1.250000E+02 -4.975000E+03  1.940512E-08  2.766398E-10  1.934564E-10 -1.940218E-08  1.045087E-10  1.493129E-12  1.044139E-12 -1.044928E-10  0.000000E+00  0.000000E+00  0.000000E+00  0.000000E+00  0.000000E+00  0.000000E+00  0.000000E+00  0.000000E+00  2.869858E-01 -1.641321E-03 -8.729260E-04  2.869798E-01                                                                                                                                                                                                                                                                                                                                                                                                                                                                                              
  1.475000E+03  1.250000E+02 -4.975000E+03  1.892602E-08  5.744942E-10  2.019438E-10 -1.891622E-08  1.019363E-10  3.100973E-12  1.090025E-12 -1.018833E-10  0.000000E+00  0.000000E+00  0.000000E+00  0.000000E+00  0.000000E+00  0.000000E+00  0.000000E+00  0.000000E+00  2.861382E-01 -3.477558E-03 -9.465011E-04  2.861155E-01                                                                                                                                                                                                                                                                                                                                                                                                                                                                                              
  1.725000E+03  1.250000E+02 -4.975000E+03  1.813941E-08  6.518057E-10  2.155878E-10 -1.812642E-08  9.771389E-11  3.518646E-12  1.163841E-12 -9.764358E-11  0.000000E+00  0.000000E+00  0.000000E+00  0.000000E+00  0.000000E+00  0.000000E+00  0.000000E+00  0.000000E+00  2.843823E-01 -4.013787E-03 -1.049271E-03  2.843521E-01                                                                                                                                                                                                                                                                                                                                                                                                                                                                                              
  1.975000E+03  1.250000E+02 -4.975000E+03  1.719268E-08  3.095602E-10  2.263140E-10 -1.718841E-08  9.263379E-11  1.671217E-12  1.221934E-12 -9.261066E-11  0.000000E+00  0.000000E+00  0.000000E+00  0.000000E+00  0.000000E+00  0.000000E+00  0.000000E+00  0.000000E+00  2.814234E-01 -1.920828E-03 -1.123793E-03  2.814146E-01                                                                                                                                                                                                                                                                                                                                                                                                                                                                                              
  1.250000E+02  1.250000E+02 -4.725000E+03  2.074811E-08 -3.079023E-10  1.163056E-10 -2.074550E-08  1.105480E-10 -1.639082E-12  6.192647E-13 -1.105342E-10  0.000000E+00  0.000000E+00  0.000000E+00  0.000000E+00  0.000000E+00  0.000000E+00  0.000000E+00  0.000000E+00  3.551947E-01  4.489627E-03 -1.481331E-03  3.551632E-01                                                                                                                                                                                                                                                                                                                                                                                                                                                                                              
  3.750000E+02  1.250000E+02 -4.725000E+03  2.226521E-08 -5.613607E-10  1.059584E-10 -2.225788E-08  1.185789E-10 -2.987971E-12  5.639796E-13 -1.185399E-10  0.000000E+00  0.000000E+00  0.000000E+00  0.000000E+00  0.000000E+00  0.000000E+00  0.000000E+00  0.000000E+00  3.644758E-01  8.079964E-03 -1.297336E-03  3.643839E-01                                                                                                                                                                                                                                                                                                                                                                                                                                                                                              
  6.250000E+02  1.250000E+02 -4.725000E+03  2.316561E-08 -4.214302E-10  9.753016E-11 -2.316157E-08  1.233519E-10 -2.242652E-12  5.189932E-13 -1.233304E-10  0.000000E+00  0.000000E+00  0.000000E+00  0.000000E+00  0.000000E+00  0.000000E+00  0.000000E+00  0.000000E+00  3.668088E-01  5.719850E-03 -1.090246E-03  3.667626E-01                                                                                                                                                                                                                                                                                                                                                                                                                                                                                              
  8.750000E+02  1.250000E+02 -4.725000E+03  2.372220E-08 -2.242720E-10  9.764690E-11 -2.372094E-08  1.262941E-10 -1.193304E-12  5.195450E-13 -1.262873E-10  0.000000E+00  0.000000E+00  0.000000E+00  0.000000E+00  0.000000E+00  0.000000E+00  0.000000E+00  0.000000E+00  3.676671E-01  2.687719E-03 -9.743273E-04  3.676560E-01                                                                                                                                                                                                                                                                                                                                                                                                                                                                                              
  1.050000E+03  1.250000E+02 -4.725000E+03  2.401814E-08 -3.464878E-15  1.010166E-10 -2.401793E-08  1.278641E-10 -1.843455E-17  5.374638E-13 -1.278630E-10  0.000000E+00  0.000000E+00  0.000000E+00  0.000000E+00  0.000000E+00  0.000000E+00  0.000000E+00  0.000000E+00  3.692041E-01 -5.147942E-09 -9.744163E-04  3.692028E-01                                                                                                                                                                                                                                                                                                                                                                                                                                                                                              
  1.225000E+03  1.250000E+02 -4.725000E+03  2.372219E-08  2.242712E-10  9.765229E-11 -2.372093E-08  1.262940E-10  1.193300E-12  5.195737E-13 -1.262873E-10  0.000000E+00  0.000000E+00  0.000000E+00  0.000000E+00  0.000000E+00  0.000000E+00  0.000000E+00  0.000000E+00  3.676671E-01 -2.687722E-03 -9.743193E-04  3.676560E-01                                                                                                                                                                                                                                                                                                                                                                                                                                                                                              
  1.475000E+03  1.250000E+02 -4.725000E+03  2.316561E-08  4.214344E-10  9.753148E-11 -2.316157E-08  1.233519E-10  2.242674E-12  5.190002E-13 -1.233304E-10  0.000000E+00  0.000000E+00  0.000000E+00  0.000000E+00  0.000000E+00  0.000000E+00  0.000000E+00  0.000000E+00  3.668088E-01 -5.719843E-03 -1.090242E-03  3.667626E-01                                                                                                                                                                                                                                                                                                                                                                                                                                                                                              
  1.725000E+03  1.250000E+02 -4.725000E+03  2.226521E-08  5.613608E-10  1.059589E-10 -2.225788E-08  1.185789E-10  2.987972E-12  5.639823E-13 -1.185399E-10  0.000000E+00  0.000000E+00  0.000000E+00  0.000000E+00  0.000000E+00  0.000000E+00  0.000000E+00  0.000000E+00  3.644758E-01 -8.079962E-03 -1.297336E-03  3.643839E-01                                                                                                                                                                                                                                                                                                                                                                                                                                                                                              