Title="TOUGHREACT V3.30-OMP flowvector.tec: Liq & Gas Fluxes (kg/s/m^2), Pore Velocities (m/s), & Heat Fluxes (J/s/m2)"                                                                                                                                                                                                                                                                                                                                                                                                                                                                                                                                                                                                                                                                                                         
Variables= "X(m)"     "Y(m)"      "Z(m)"     "FluxLiq"   "FluxLiq_X"   "FluxLiq_Y"   "FluxLiq_Z"   "PorVelLiq"  "PorVelLiqX"  "PorVelLiqY"  "PorVelLiqZ"     "FluxGas"   "FluxGas_X"   "FluxGas_Y"   "FluxGas_Z"   "PorVelGas"  "PorVelGasX"  "PorVelGasY"  "PorVelGasZ"    "HeatFlux"  "HeatFlux_X"  "HeatFlux_Y"  "HeatFlux_Z"                                                                                                                                                                                                                                                                                                                                                                                                                                                                                                
Zone T= "3.15569000E+08 sec" I=     9 J=    10 K=    23 F=Point
  1.250000E+02  1.250000E+02 -5.425000E+03  7.745287E-09 -6.430496E-10  8.195307E-10 -7.674915E-09  4.350180E-11 -3.630049E-12  4.626705E-12 -4.310247E-11  0.000000E+00  0.000000E+00  0.000000E+00  0.000000E+00  0.000000E+00  0.000000E+00  0.000000E+00  0.000000E+00  1.085169E-01  5.593029E-04 -3.135388E-04  1.085150E-01                                                                                                                                                                                                                                                                                                                                                                                                                                                                                              
  3.750000E+02  1.250000E+02 -5.425000E+03  8.121023E-09 -1.441283E-09  7.940598E-10 -7.952558E-09  4.561246E-11 -8.135754E-12  4.482476E-12 -4.465662E-11  0.000000E+00  0.000000E+00  0.000000E+00  0.000000E+00  0.000000E+00  0.000000E+00  0.000000E+00  0.000000E+00  1.089221E-01  1.085858E-03 -2.905270E-04  1.089163E-01                                                                                                                                                                                                                                                                                                                                                                                                                                                                                              
  6.250000E+02  1.250000E+02 -5.425000E+03  8.370291E-09 -1.231871E-09  7.559521E-10 -8.244562E-09  4.700486E-11 -6.953353E-12  4.266974E-12 -4.629148E-11  0.000000E+00  0.000000E+00  0.000000E+00  0.000000E+00  0.000000E+00  0.000000E+00  0.000000E+00  0.000000E+00  1.094523E-01  2.599715E-04 -2.543665E-04  1.094517E-01                                                                                                                                                                                                                                                                                                                                                                                                                                                                                              
  8.750000E+02  1.250000E+02 -5.425000E+03  8.447410E-09 -2.213828E-10  7.264940E-10 -8.413200E-09  4.743273E-11 -1.249478E-12  4.100825E-12 -4.723861E-11  0.000000E+00  0.000000E+00  0.000000E+00  0.000000E+00  0.000000E+00  0.000000E+00  0.000000E+00  0.000000E+00  1.104007E-01 -2.511925E-03 -2.251858E-04  1.103719E-01                                                                                                                                                                                                                                                                                                                                                                                                                                                                                              
  1.050000E+03  1.250000E+02 -5.425000E+03  8.393205E-09  1.037094E-10  7.233259E-10 -8.361336E-09  4.713425E-11  5.854330E-13  4.083770E-12 -4.695335E-11  0.000000E+00  0.000000E+00  0.000000E+00  0.000000E+00  0.000000E+00  0.000000E+00  0.000000E+00  0.000000E+00  1.124165E-01  9.199542E-05 -2.207817E-04  1.124163E-01                                                                                                                                                                                                                                                                                                                                                                                                                                                                                              
  1.225000E+03  1.250000E+02 -5.425000E+03  8.449423E-09  4.185801E-10  7.265098E-10 -8.407718E-09  4.744448E-11  2.362599E-12  4.100915E-12 -4.720783E-11  0.000000E+00  0.000000E+00  0.000000E+00  0.000000E+00  0.000000E+00  0.000000E+00  0.000000E+00  0.000000E+00  1.104095E-01  2.686827E-03 -2.251871E-04  1.103765E-01                                                                                                                                                                                                                                                                                                                                                                                                                                                                                              
  1.475000E+03  1.250000E+02 -5.425000E+03  8.383749E-09  1.395262E-09  7.559806E-10 -8.232192E-09  4.708195E-11  7.875617E-12  4.267135E-12 -4.622203E-11  0.000000E+00  0.000000E+00  0.000000E+00  0.000000E+00  0.000000E+00  0.000000E+00  0.000000E+00  0.000000E+00  1.094625E-01 -1.150769E-04 -2.543429E-04  1.094621E-01                                                                                                                                                                                                                                                                                                                                                                                                                                                                                              
  1.725000E+03  1.250000E+02 -5.425000E+03  8.123813E-09  1.548368E-09  7.940931E-10 -7.935258E-09  4.562930E-11  8.740226E-12  4.482665E-12 -4.455948E-11  0.000000E+00  0.000000E+00  0.000000E+00  0.000000E+00  0.000000E+00  0.000000E+00  0.000000E+00  0.000000E+00  1.089358E-01 -9.908634E-04 -2.905028E-04  1.089309E-01                                                                                                                                                                                                                                                                                                                                                                                                                                                                                              
  1.975000E+03  1.250000E+02 -5.425000E+03  7.728857E-09  6.802317E-10  8.195648E-10 -7.655118E-09  4.340973E-11  3.839944E-12  4.626899E-12 -4.299129E-11  0.000000E+00  0.000000E+00  0.000000E+00  0.000000E+00  0.000000E+00  0.000000E+00  0.000000E+00  0.000000E+00  1.085335E-01 -5.262973E-04 -3.135202E-04  1.085317E-01                                                                                                                                                                                                                                                                                                                                                                                                                                                                                              
  1.250000E+02  1.250000E+02 -5.225000E+03  2.032680E-08 -5.330533E-10  6.185217E-10 -2.031040E-08  1.131118E-10 -2.980300E-12  3.458565E-12 -1.130196E-10  0.000000E+00  0.000000E+00  0.000000E+00  0.000000E+00  0.000000E+00  0.000000E+00  0.000000E+00  0.000000E+00  3.037311E-01  1.183248E-03 -7.389947E-04  3.037279E-01                                                                                                                                                                                                                                                                                                                                                                                                                                                                                              
  3.750000E+02  1.250000E+02 -5.225000E+03  2.129201E-08 -1.192020E-09  5.980350E-10 -2.125020E-08  1.184565E-10 -6.664126E-12  3.343535E-12 -1.182216E-10  0.000000E+00  0.000000E+00  0.000000E+00  0.000000E+00  0.000000E+00  0.000000E+00  0.000000E+00  0.000000E+00  3.055868E-01  2.480998E-03 -6.934163E-04  3.055760E-01                                                                                                                                                                                                                                                                                                                                                                                                                                                                                              
  6.250000E+02  1.250000E+02 -5.225000E+03  2.219114E-08 -1.094604E-09  5.684157E-10 -2.215684E-08  1.234334E-10 -6.118961E-12  3.177492E-12 -1.232407E-10  0.000000E+00  0.000000E+00  0.000000E+00  0.000000E+00  0.000000E+00  0.000000E+00  0.000000E+00  0.000000E+00  3.074791E-01  1.894818E-03 -6.242660E-04  3.074726E-01                                                                                                                                                                                                                                                                                                                                                                                                                                                                                              
  8.750000E+02  1.250000E+02 -5.225000E+03  2.266818E-08 -4.711213E-10  5.467668E-10 -2.265669E-08  1.260778E-10 -2.633482E-12  3.056342E-12 -1.260133E-10  0.000000E+00  0.000000E+00  0.000000E+00  0.000000E+00  0.000000E+00  0.000000E+00  0.000000E+00  0.000000E+00  3.094208E-01  4.202643E-04 -5.721937E-04  3.094200E-01                                                                                                                                                                                                                                                                                                                                                                                                                                                                                              
  1.050000E+03  1.250000E+02 -5.225000E+03  2.262086E-08  1.065455E-10  5.444103E-10 -2.261406E-08  1.258192E-10  5.955599E-13  3.043286E-12 -1.257810E-10  0.000000E+00  0.000000E+00  0.000000E+00  0.000000E+00  0.000000E+00  0.000000E+00  0.000000E+00  0.000000E+00  3.118264E-01  9.013716E-05 -5.665595E-04  3.118258E-01                                                                                                                                                                                                                                                                                                                                                                                                                                                                                              
  1.225000E+03  1.250000E+02 -5.225000E+03  2.265737E-08  6.735494E-10  5.467806E-10 -2.264076E-08  1.260181E-10  3.765010E-12  3.056420E-12 -1.259247E-10  0.000000E+00  0.000000E+00  0.000000E+00  0.000000E+00  0.000000E+00  0.000000E+00  0.000000E+00  0.000000E+00  3.094331E-01 -2.490257E-04 -5.721998E-04  3.094325E-01                                                                                                                                                                                                                                                                                                                                                                                                                                                                                              
  1.475000E+03  1.250000E+02 -5.225000E+03  2.216435E-08  1.262018E-09  5.684407E-10 -2.212109E-08  1.232850E-10  7.054816E-12  3.177632E-12 -1.230420E-10  0.000000E+00  0.000000E+00  0.000000E+00  0.000000E+00  0.000000E+00  0.000000E+00  0.000000E+00  0.000000E+00  3.075064E-01 -1.753196E-03 -6.242472E-04  3.075008E-01                                                                                                                                                                                                                                                                                                                                                                                                                                                                                              
  1.725000E+03  1.250000E+02 -5.225000E+03  2.124878E-08  1.301507E-09  5.980606E-10 -2.120045E-08  1.182165E-10  7.276221E-12  3.343679E-12 -1.179449E-10  0.000000E+00  0.000000E+00  0.000000E+00  0.000000E+00  0.000000E+00  0.000000E+00  0.000000E+00  0.000000E+00  3.056253E-01 -2.388330E-03 -6.933812E-04  3.056152E-01                                                                                                                                                                                                                                                                                                                                                                                                                                                                                              
  1.975000E+03  1.250000E+02 -5.225000E+03  2.027121E-08  5.710083E-10  6.185444E-10 -2.025372E-08  1.128027E-10  3.192507E-12  3.458693E-12 -1.127044E-10  0.000000E+00  0.000000E+00  0.000000E+00  0.000000E+00  0.000000E+00  0.000000E+00  0.000000E+00  0.000000E+00  3.037757E-01 -1.151101E-03 -7.389696E-04  3.037726E-01                                                                                                                                                                                                                                                                                                                                                                                                                                                                                              
  1.250000E+02  1.250000E+02 -4.975000E+03  2.845500E-08 -5.355881E-10  4.255272E-10 -2.844678E-08  1.555470E-10 -2.934543E-12  2.332042E-12 -1.555018E-10  0.000000E+00  0.000000E+00  0.000000E+00  0.000000E+00  0.000000E+00  0.000000E+00  0.000000E+00  0.000000E+00  4.593970E-01  3.158361E-03 -1.657027E-03  4.593831E-01                                                                                                                                                                                                                                                                                                                                                                                                                                                                                              
  3.750000E+02  1.250000E+02 -4.975000E+03  3.025723E-08 -1.102494E-09  4.049558E-10 -3.023442E-08  1.653229E-10 -6.039803E-12  2.218609E-12 -1.651976E-10  0.000000E+00  0.000000E+00  0.000000E+00  0.000000E+00  0.000000E+00  0.000000E+00  0.000000E+00  0.000000E+00  4.650316E-01  6.390408E-03 -1.539192E-03  4.649851E-01                                                                                                                                                                                                                                                                                                                                                                                                                                                                                              
  6.250000E+02  1.250000E+02 -4.975000E+03  3.168260E-08 -9.239780E-10  3.794326E-10 -3.166685E-08  1.730567E-10 -5.060734E-12  2.078161E-12 -1.729702E-10  0.000000E+00  0.000000E+00  0.000000E+00  0.000000E+00  0.000000E+00  0.000000E+00  0.000000E+00  0.000000E+00  4.687091E-01  5.191976E-03 -1.376655E-03  4.686783E-01                                                                                                                                                                                                                                                                                                                                                                                                                                                                                              
  8.750000E+02  1.250000E+02 -4.975000E+03  3.244728E-08 -3.808717E-10  3.659863E-10 -3.244298E-08  1.772051E-10 -2.085800E-12  2.004227E-12 -1.771815E-10  0.000000E+00  0.000000E+00  0.000000E+00  0.000000E+00  0.000000E+00  0.000000E+00  0.000000E+00  0.000000E+00  4.708566E-01  2.319253E-03 -1.276866E-03  4.708492E-01                                                                                                                                                                                                                                                                                                                                                                                                                                                                                              
  1.050000E+03  1.250000E+02 -4.975000E+03  3.253956E-08  1.125333E-10  3.664233E-10 -3.253730E-08  1.777067E-10  6.162243E-13  2.006633E-12 -1.776944E-10  0.000000E+00  0.000000E+00  0.000000E+00  0.000000E+00  0.000000E+00  0.000000E+00  0.000000E+00  0.000000E+00  4.715173E-01  8.503529E-05 -1.275837E-03  4.715156E-01                                                                                                                                                                                                                                                                                                                                                                                                                                                                                              
  1.225000E+03  1.250000E+02 -4.975000E+03  3.244047E-08  5.941517E-10  3.659943E-10 -3.243296E-08  1.771673E-10  3.253755E-12  2.004271E-12 -1.771261E-10  0.000000E+00  0.000000E+00  0.000000E+00  0.000000E+00  0.000000E+00  0.000000E+00  0.000000E+00  0.000000E+00  4.708634E-01 -2.158088E-03 -1.276860E-03  4.708568E-01                                                                                                                                                                                                                                                                                                                                                                                                                                                                                              
  1.475000E+03  1.250000E+02 -4.975000E+03  3.166647E-08  1.099302E-09  3.794437E-10 -3.164511E-08  1.729671E-10  6.020964E-12  2.078223E-12 -1.728498E-10  0.000000E+00  0.000000E+00  0.000000E+00  0.000000E+00  0.000000E+00  0.000000E+00  0.000000E+00  0.000000E+00  4.687243E-01 -5.059414E-03 -1.376646E-03  4.686949E-01                                                                                                                                                                                                                                                                                                                                                                                                                                                                                              
  1.725000E+03  1.250000E+02 -4.975000E+03  3.023273E-08  1.216249E-09  4.049529E-10 -3.020554E-08  1.651868E-10  6.662964E-12  2.218594E-12 -1.650375E-10  0.000000E+00  0.000000E+00  0.000000E+00  0.000000E+00  0.000000E+00  0.000000E+00  0.000000E+00  0.000000E+00  4.650527E-01 -6.304271E-03 -1.539196E-03  4.650074E-01                                                                                                                                                                                                                                                                                                                                                                                                                                                                                              
  1.975000E+03  1.250000E+02 -4.975000E+03  2.842466E-08  5.747661E-10  4.255039E-10 -2.841566E-08  1.553784E-10  3.149204E-12  2.331915E-12 -1.553290E-10  0.000000E+00  0.000000E+00  0.000000E+00  0.000000E+00  0.000000E+00  0.000000E+00  0.000000E+00  0.000000E+00  4.594211E-01 -3.128657E-03 -1.657041E-03  4.594074E-01                                                                                                                                                                                                                                                                                                                                                                                                                                                                                              
  1.250000E+02  1.250000E+02 -4.725000E+03  3.271330E-08 -5.180707E-10  2.371747E-10 -3.270833E-08  1.752055E-10 -2.770169E-12  1.268752E-12 -1.751791E-10  0.000000E+00  0.000000E+00  0.000000E+00  0.000000E+00  0.000000E+00  0.000000E+00  0.000000E+00  0.000000E+00  5.720461E-01  8.052539E-03 -2.974228E-03  5.719817E-01                                                                                                                                                                                                                                                                                                                                                                                                                                                                                              
  3.750000E+02  1.250000E+02 -4.725000E+03  3.535114E-08 -9.152861E-10  2.177305E-10 -3.533862E-08  1.891870E-10 -4.892928E-12  1.163944E-12 -1.891201E-10  0.000000E+00  0.000000E+00  0.000000E+00  0.000000E+00  0.000000E+00  0.000000E+00  0.000000E+00  0.000000E+00  5.859764E-01  1.426736E-02 -2.660519E-03  5.857967E-01                                                                                                                                                                                                                                                                                                                                                                                                                                                                                              
  6.250000E+02  1.250000E+02 -4.725000E+03  3.670722E-08 -6.264433E-10  2.030381E-10 -3.670131E-08  1.963925E-10 -3.347316E-12  1.084869E-12 -1.963609E-10  0.000000E+00  0.000000E+00  0.000000E+00  0.000000E+00  0.000000E+00  0.000000E+00  0.000000E+00  0.000000E+00  5.854730E-01  9.698353E-03 -2.320559E-03  5.853881E-01                                                                                                                                                                                                                                                                                                                                                                                                                                                                                              
  8.750000E+02  1.250000E+02 -4.725000E+03  3.740822E-08 -2.635966E-10  2.087948E-10 -3.740671E-08  2.001169E-10 -1.408132E-12  1.115341E-12 -2.001088E-10  0.000000E+00  0.000000E+00  0.000000E+00  0.000000E+00  0.000000E+00  0.000000E+00  0.000000E+00  0.000000E+00  5.828679E-01  4.345131E-03 -2.227267E-03  5.828474E-01                                                                                                                                                                                                                                                                                                                                                                                                                                                                                              
  1.050000E+03  1.250000E+02 -4.725000E+03  3.770320E-08  9.599913E-11  2.216091E-10 -3.770243E-08  2.016702E-10  5.127622E-13  1.183780E-12 -2.016661E-10  0.000000E+00  0.000000E+00  0.000000E+00  0.000000E+00  0.000000E+00  0.000000E+00  0.000000E+00  0.000000E+00  5.823295E-01  6.097746E-05 -2.344032E-03  5.823248E-01                                                                                                                                                                                                                                                                                                                                                                                                                                                                                              
  1.225000E+03  1.250000E+02 -4.725000E+03  3.752466E-08  4.448840E-10  2.087954E-10 -3.752144E-08  2.007336E-10  2.376512E-12  1.115345E-12 -2.007164E-10  0.000000E+00  0.000000E+00  0.000000E+00  0.000000E+00  0.000000E+00  0.000000E+00  0.000000E+00  0.000000E+00  5.828050E-01 -4.229961E-03 -2.227266E-03  5.827853E-01                                                                                                                                                                                                                                                                                                                                                                                                                                                                                              
  1.475000E+03  1.250000E+02 -4.725000E+03  3.697117E-08  7.739053E-10  2.030294E-10 -3.696251E-08  1.977907E-10  4.135198E-12  1.084822E-12 -1.977445E-10  0.000000E+00  0.000000E+00  0.000000E+00  0.000000E+00  0.000000E+00  0.000000E+00  0.000000E+00  0.000000E+00  5.853299E-01 -9.604562E-03 -2.320566E-03  5.852465E-01                                                                                                                                                                                                                                                                                                                                                                                                                                                                                              
  1.725000E+03  1.250000E+02 -4.725000E+03  3.572359E-08  1.009034E-09  2.176661E-10 -3.570867E-08  1.911606E-10  5.394023E-12  1.163600E-12 -1.910810E-10  0.000000E+00  0.000000E+00  0.000000E+00  0.000000E+00  0.000000E+00  0.000000E+00  0.000000E+00  0.000000E+00  5.857737E-01 -1.420756E-02 -2.660558E-03  5.855953E-01                                                                                                                                                                                                                                                                                                                                                                                                                                                                                              