Title="TOUGHREACT V3.30-OMP flowvector.tec: Liq & Gas Fluxes (kg/s/m^2), Pore Velocities (m/s), & Heat Fluxes (J/s/m2)"                                                                                                                                                                                                                                                                                                                                                                                                                                                                                                                                                                                                                                                                                                         
Variables= "X(m)"     "Y(m)"      "Z(m)"     "FluxLiq"   "FluxLiq_X"   "FluxLiq_Y"   "FluxLiq_Z"   "PorVelLiq"  "PorVelLiqX"  "PorVelLiqY"  "PorVelLiqZ"     "FluxGas"   "FluxGas_X"   "FluxGas_Y"   "FluxGas_Z"   "PorVelGas"  "PorVelGasX"  "PorVelGasY"  "PorVelGasZ"    "HeatFlux"  "HeatFlux_X"  "HeatFlux_Y"  "HeatFlux_Z"                                                                                                                                                                                                                                                                                                                                                                                                                                                                                                
Zone T= "1.00000000E+10 sec" I=     9 J=    10 K=    23 F=Point
  1.250000E+02  1.250000E+02 -5.425000E+03  6.123779E-09 -6.294015E-10  7.848888E-10 -6.040569E-09  3.426547E-11 -3.535579E-12  4.409413E-12 -3.379614E-11  0.000000E+00  0.000000E+00  0.000000E+00  0.000000E+00  0.000000E+00  0.000000E+00  0.000000E+00  0.000000E+00  8.502970E-02  6.050076E-04 -4.362649E-04  8.502643E-02                                                                                                                                                                                                                                                                                                                                                                                                                                                                                              
  3.750000E+02  1.250000E+02 -5.425000E+03  6.501654E-09 -1.440080E-09  7.606087E-10 -6.294374E-09  3.638114E-11 -8.089081E-12  4.272599E-12 -3.521220E-11  0.000000E+00  0.000000E+00  0.000000E+00  0.000000E+00  0.000000E+00  0.000000E+00  0.000000E+00  0.000000E+00  8.541358E-02  1.212745E-03 -4.105613E-04  8.540398E-02                                                                                                                                                                                                                                                                                                                                                                                                                                                                                              
  6.250000E+02  1.250000E+02 -5.425000E+03  6.733971E-09 -1.345105E-09  7.243675E-10 -6.558380E-09  3.767541E-11 -7.555159E-12  4.068631E-12 -3.668518E-11  0.000000E+00  0.000000E+00  0.000000E+00  0.000000E+00  0.000000E+00  0.000000E+00  0.000000E+00  0.000000E+00  8.588950E-02  6.851825E-04 -3.704853E-04  8.588597E-02                                                                                                                                                                                                                                                                                                                                                                                                                                                                                              
  8.750000E+02  1.250000E+02 -5.425000E+03  6.763768E-09 -6.272691E-10  6.961248E-10 -6.698545E-09  3.783624E-11 -3.523115E-12  3.909941E-12 -3.746840E-11  0.000000E+00  0.000000E+00  0.000000E+00  0.000000E+00  0.000000E+00  0.000000E+00  0.000000E+00  0.000000E+00  8.641835E-02 -3.809423E-05 -3.385170E-04  8.641768E-02                                                                                                                                                                                                                                                                                                                                                                                                                                                                                              
  1.050000E+03  1.250000E+02 -5.425000E+03  6.742951E-09 -3.122821E-11  6.926245E-10 -6.707211E-09  3.771935E-11 -1.753942E-13  3.890348E-12 -3.751778E-11  0.000000E+00  0.000000E+00  0.000000E+00  0.000000E+00  0.000000E+00  0.000000E+00  0.000000E+00  0.000000E+00  8.655269E-02 -2.696964E-05 -3.345997E-04  8.655204E-02                                                                                                                                                                                                                                                                                                                                                                                                                                                                                              
  1.225000E+03  1.250000E+02 -5.425000E+03  6.759985E-09  5.679190E-10  6.960982E-10 -6.700023E-09  3.781484E-11  3.189771E-12  3.909792E-12 -3.747667E-11  0.000000E+00  0.000000E+00  0.000000E+00  0.000000E+00  0.000000E+00  0.000000E+00  0.000000E+00  0.000000E+00  8.641708E-02 -1.321414E-05 -3.385547E-04  8.641642E-02                                                                                                                                                                                                                                                                                                                                                                                                                                                                                              
  1.475000E+03  1.250000E+02 -5.425000E+03  6.727561E-09  1.295925E-09  7.243320E-10 -6.561707E-09  3.763911E-11  7.278928E-12  4.068432E-12 -3.670379E-11  0.000000E+00  0.000000E+00  0.000000E+00  0.000000E+00  0.000000E+00  0.000000E+00  0.000000E+00  0.000000E+00  8.588709E-02 -7.277578E-04 -3.705189E-04  8.588320E-02                                                                                                                                                                                                                                                                                                                                                                                                                                                                                              
  1.725000E+03  1.250000E+02 -5.425000E+03  6.499063E-09  1.407828E-09  7.605787E-10 -6.298996E-09  3.636632E-11  7.907920E-12  4.272430E-12 -3.523805E-11  0.000000E+00  0.000000E+00  0.000000E+00  0.000000E+00  0.000000E+00  0.000000E+00  0.000000E+00  0.000000E+00  8.541015E-02 -1.240651E-03 -4.105721E-04  8.540015E-02                                                                                                                                                                                                                                                                                                                                                                                                                                                                                              
  1.975000E+03  1.250000E+02 -5.425000E+03  6.127842E-09  6.182078E-10  7.848746E-10 -6.045845E-09  3.428814E-11  3.472700E-12  4.409333E-12 -3.382566E-11  0.000000E+00  0.000000E+00  0.000000E+00  0.000000E+00  0.000000E+00  0.000000E+00  0.000000E+00  0.000000E+00  8.502537E-02 -6.146772E-04 -4.363024E-04  8.502203E-02                                                                                                                                                                                                                                                                                                                                                                                                                                                                                              
  1.250000E+02  1.250000E+02 -5.225000E+03  1.872527E-08 -5.103499E-10  5.758059E-10 -1.870945E-08  1.038402E-10 -2.845839E-12  3.211221E-12 -1.037515E-10  0.000000E+00  0.000000E+00  0.000000E+00  0.000000E+00  0.000000E+00  0.000000E+00  0.000000E+00  0.000000E+00  2.714952E-01  1.192218E-03 -8.364692E-04  2.714913E-01                                                                                                                                                                                                                                                                                                                                                                                                                                                                                              
  3.750000E+02  1.250000E+02 -5.225000E+03  1.959645E-08 -1.161014E-09  5.566830E-10 -1.955410E-08  1.086526E-10 -6.473664E-12  3.104144E-12 -1.084151E-10  0.000000E+00  0.000000E+00  0.000000E+00  0.000000E+00  0.000000E+00  0.000000E+00  0.000000E+00  0.000000E+00  2.731574E-01  2.516655E-03 -7.891245E-04  2.731447E-01                                                                                                                                                                                                                                                                                                                                                                                                                                                                                              
  6.250000E+02  1.250000E+02 -5.225000E+03  2.042045E-08 -1.108425E-09  5.290656E-10 -2.038348E-08  1.132016E-10 -6.179874E-12  2.949734E-12 -1.129943E-10  0.000000E+00  0.000000E+00  0.000000E+00  0.000000E+00  0.000000E+00  0.000000E+00  0.000000E+00  0.000000E+00  2.748492E-01  1.999275E-03 -7.176976E-04  2.748410E-01                                                                                                                                                                                                                                                                                                                                                                                                                                                                                              
  8.750000E+02  1.250000E+02 -5.225000E+03  2.085837E-08 -5.488533E-10  5.084300E-10 -2.084495E-08  1.156198E-10 -3.059879E-12  2.834538E-12 -1.155445E-10  0.000000E+00  0.000000E+00  0.000000E+00  0.000000E+00  0.000000E+00  0.000000E+00  0.000000E+00  0.000000E+00  2.762424E-01  7.252725E-04 -6.634638E-04  2.762407E-01                                                                                                                                                                                                                                                                                                                                                                                                                                                                                              
  1.050000E+03  1.250000E+02 -5.225000E+03  2.089896E-08 -3.206618E-11  5.059498E-10 -2.089281E-08  1.158458E-10 -1.787654E-13  2.820760E-12 -1.158113E-10  0.000000E+00  0.000000E+00  0.000000E+00  0.000000E+00  0.000000E+00  0.000000E+00  0.000000E+00  0.000000E+00  2.765248E-01 -2.669627E-05 -6.571325E-04  2.765241E-01                                                                                                                                                                                                                                                                                                                                                                                                                                                                                              
  1.225000E+03  1.250000E+02 -5.225000E+03  2.086118E-08  4.879498E-10  5.084109E-10 -2.084928E-08  1.156353E-10  2.720344E-12  2.834431E-12 -1.155685E-10  0.000000E+00  0.000000E+00  0.000000E+00  0.000000E+00  0.000000E+00  0.000000E+00  0.000000E+00  0.000000E+00  2.762392E-01 -7.759618E-04 -6.634795E-04  2.762373E-01                                                                                                                                                                                                                                                                                                                                                                                                                                                                                              
  1.475000E+03  1.250000E+02 -5.225000E+03  2.042747E-08  1.058060E-09  5.290350E-10 -2.039319E-08  1.132403E-10  5.899074E-12  2.949564E-12 -1.130481E-10  0.000000E+00  0.000000E+00  0.000000E+00  0.000000E+00  0.000000E+00  0.000000E+00  0.000000E+00  0.000000E+00  2.748420E-01 -2.041211E-03 -7.177325E-04  2.748335E-01                                                                                                                                                                                                                                                                                                                                                                                                                                                                                              
  1.725000E+03  1.250000E+02 -5.225000E+03  1.960793E-08  1.128073E-09  5.566581E-10 -1.956754E-08  1.087162E-10  6.289991E-12  3.104005E-12 -1.084897E-10  0.000000E+00  0.000000E+00  0.000000E+00  0.000000E+00  0.000000E+00  0.000000E+00  0.000000E+00  0.000000E+00  2.731472E-01 -2.544111E-03 -7.891350E-04  2.731343E-01                                                                                                                                                                                                                                                                                                                                                                                                                                                                                              
  1.975000E+03  1.250000E+02 -5.225000E+03  1.874023E-08  4.989368E-10  5.757788E-10 -1.872474E-08  1.039232E-10  2.782196E-12  3.211069E-12 -1.038363E-10  0.000000E+00  0.000000E+00  0.000000E+00  0.000000E+00  0.000000E+00  0.000000E+00  0.000000E+00  0.000000E+00  2.714833E-01 -1.201733E-03 -8.364867E-04  2.714793E-01                                                                                                                                                                                                                                                                                                                                                                                                                                                                                              
  1.250000E+02  1.250000E+02 -4.975000E+03  2.891700E-08 -4.846630E-10  3.694967E-10 -2.891057E-08  1.578155E-10 -2.651427E-12  2.021820E-12 -1.577803E-10  0.000000E+00  0.000000E+00  0.000000E+00  0.000000E+00  0.000000E+00  0.000000E+00  0.000000E+00  0.000000E+00  4.404378E-01  2.955219E-03 -1.640175E-03  4.404248E-01                                                                                                                                                                                                                                                                                                                                                                                                                                                                                              
  3.750000E+02  1.250000E+02 -4.975000E+03  3.044678E-08 -1.025406E-09  3.511504E-10 -3.042749E-08  1.661039E-10 -5.608882E-12  1.920883E-12 -1.659981E-10  0.000000E+00  0.000000E+00  0.000000E+00  0.000000E+00  0.000000E+00  0.000000E+00  0.000000E+00  0.000000E+00  4.447860E-01  6.034738E-03 -1.523430E-03  4.447425E-01                                                                                                                                                                                                                                                                                                                                                                                                                                                                                              
  6.250000E+02  1.250000E+02 -4.975000E+03  3.171452E-08 -9.126739E-10  3.281553E-10 -3.169969E-08  1.729745E-10 -4.991238E-12  1.794598E-12 -1.728932E-10  0.000000E+00  0.000000E+00  0.000000E+00  0.000000E+00  0.000000E+00  0.000000E+00  0.000000E+00  0.000000E+00  4.476506E-01  4.952925E-03 -1.363382E-03  4.476211E-01                                                                                                                                                                                                                                                                                                                                                                                                                                                                                              
  8.750000E+02  1.250000E+02 -4.975000E+03  3.242548E-08 -4.553433E-10  3.142467E-10 -3.242076E-08  1.768281E-10 -2.489859E-12  1.718302E-12 -1.768022E-10  0.000000E+00  0.000000E+00  0.000000E+00  0.000000E+00  0.000000E+00  0.000000E+00  0.000000E+00  0.000000E+00  4.493188E-01  2.189835E-03 -1.256389E-03  4.493117E-01                                                                                                                                                                                                                                                                                                                                                                                                                                                                                              
  1.050000E+03  1.250000E+02 -4.975000E+03  3.254100E-08 -3.350251E-11  3.131806E-10 -3.253948E-08  1.774574E-10 -1.831821E-13  1.712482E-12 -1.774490E-10  0.000000E+00  0.000000E+00  0.000000E+00  0.000000E+00  0.000000E+00  0.000000E+00  0.000000E+00  0.000000E+00  4.497019E-01 -2.499103E-05 -1.246190E-03  4.497002E-01                                                                                                                                                                                                                                                                                                                                                                                                                                                                                              
  1.225000E+03  1.250000E+02 -4.975000E+03  3.242669E-08  3.918632E-10  3.142371E-10 -3.242280E-08  1.768349E-10  2.142754E-12  1.718249E-12 -1.768135E-10  0.000000E+00  0.000000E+00  0.000000E+00  0.000000E+00  0.000000E+00  0.000000E+00  0.000000E+00  0.000000E+00  4.493175E-01 -2.237208E-03 -1.256397E-03  4.493101E-01                                                                                                                                                                                                                                                                                                                                                                                                                                                                                              
  1.475000E+03  1.250000E+02 -4.975000E+03  3.171738E-08  8.605071E-10  3.281425E-10 -3.170401E-08  1.729906E-10  4.705957E-12  1.794528E-12 -1.729173E-10  0.000000E+00  0.000000E+00  0.000000E+00  0.000000E+00  0.000000E+00  0.000000E+00  0.000000E+00  0.000000E+00  4.476476E-01 -4.991899E-03 -1.363394E-03  4.476177E-01                                                                                                                                                                                                                                                                                                                                                                                                                                                                                              
  1.725000E+03  1.250000E+02 -4.975000E+03  3.045119E-08  9.915518E-10  3.511362E-10 -3.043301E-08  1.661286E-10  5.423708E-12  1.920805E-12 -1.660290E-10  0.000000E+00  0.000000E+00  0.000000E+00  0.000000E+00  0.000000E+00  0.000000E+00  0.000000E+00  0.000000E+00  4.447819E-01 -6.060061E-03 -1.523438E-03  4.447380E-01                                                                                                                                                                                                                                                                                                                                                                                                                                                                                              
  1.975000E+03  1.250000E+02 -4.975000E+03  2.892257E-08  4.729979E-10  3.694902E-10 -2.891634E-08  1.578467E-10  2.587611E-12  2.021784E-12 -1.578126E-10  0.000000E+00  0.000000E+00  0.000000E+00  0.000000E+00  0.000000E+00  0.000000E+00  0.000000E+00  0.000000E+00  4.404331E-01 -2.963950E-03 -1.640186E-03  4.404200E-01                                                                                                                                                                                                                                                                                                                                                                                                                                                                                              
  1.250000E+02  1.250000E+02 -4.725000E+03  3.338699E-08 -4.375958E-10  1.843334E-10 -3.338361E-08  1.787516E-10 -2.338860E-12  9.855682E-13 -1.787336E-10  0.000000E+00  0.000000E+00  0.000000E+00  0.000000E+00  0.000000E+00  0.000000E+00  0.000000E+00  0.000000E+00  5.393516E-01  6.623030E-03 -2.410063E-03  5.393056E-01                                                                                                                                                                                                                                                                                                                                                                                                                                                                                              
  3.750000E+02  1.250000E+02 -4.725000E+03  3.553742E-08 -8.058481E-10  1.676206E-10 -3.552789E-08  1.901465E-10 -4.306199E-12  8.957180E-13 -1.900956E-10  0.000000E+00  0.000000E+00  0.000000E+00  0.000000E+00  0.000000E+00  0.000000E+00  0.000000E+00  0.000000E+00  5.502605E-01  1.194515E-02 -2.116814E-03  5.501267E-01                                                                                                                                                                                                                                                                                                                                                                                                                                                                                              
  6.250000E+02  1.250000E+02 -4.725000E+03  3.683501E-08 -6.143825E-10  1.540843E-10 -3.682956E-08  1.970313E-10 -3.281841E-12  8.230460E-13 -1.970023E-10  0.000000E+00  0.000000E+00  0.000000E+00  0.000000E+00  0.000000E+00  0.000000E+00  0.000000E+00  0.000000E+00  5.520971E-01  8.368809E-03 -1.796486E-03  5.520308E-01                                                                                                                                                                                                                                                                                                                                                                                                                                                                                              
  8.750000E+02  1.250000E+02 -4.725000E+03  3.758205E-08 -3.326761E-10  1.536636E-10 -3.758027E-08  2.009884E-10 -1.776657E-12  8.206158E-13 -2.009789E-10  0.000000E+00  0.000000E+00  0.000000E+00  0.000000E+00  0.000000E+00  0.000000E+00  0.000000E+00  0.000000E+00  5.526004E-01  3.778405E-03 -1.630532E-03  5.525851E-01                                                                                                                                                                                                                                                                                                                                                                                                                                                                                              
  1.050000E+03  1.250000E+02 -4.725000E+03  3.792962E-08 -2.771911E-11  1.578540E-10 -3.792928E-08  2.028163E-10 -1.480201E-13  8.429829E-13 -2.028145E-10  0.000000E+00  0.000000E+00  0.000000E+00  0.000000E+00  0.000000E+00  0.000000E+00  0.000000E+00  0.000000E+00  5.543540E-01 -1.748979E-05 -1.631300E-03  5.543516E-01                                                                                                                                                                                                                                                                                                                                                                                                                                                                                              
  1.225000E+03  1.250000E+02 -4.725000E+03  3.754752E-08  2.803476E-10  1.536587E-10 -3.754616E-08  2.008054E-10  1.497206E-12  8.205897E-13 -2.007981E-10  0.000000E+00  0.000000E+00  0.000000E+00  0.000000E+00  0.000000E+00  0.000000E+00  0.000000E+00  0.000000E+00  5.526192E-01 -3.811439E-03 -1.630536E-03  5.526036E-01                                                                                                                                                                                                                                                                                                                                                                                                                                                                                              
  1.475000E+03  1.250000E+02 -4.725000E+03  3.675659E-08  5.718483E-10  1.540780E-10 -3.675182E-08  1.966156E-10  3.054649E-12  8.230123E-13 -1.965902E-10  0.000000E+00  0.000000E+00  0.000000E+00  0.000000E+00  0.000000E+00  0.000000E+00  0.000000E+00  0.000000E+00  5.521400E-01 -8.395689E-03 -1.796488E-03  5.520732E-01                                                                                                                                                                                                                                                                                                                                                                                                                                                                                              
  1.725000E+03  1.250000E+02 -4.725000E+03  3.542662E-08  7.787840E-10  1.676222E-10 -3.541767E-08  1.895589E-10  4.161591E-12  8.957261E-13 -1.895111E-10  0.000000E+00  0.000000E+00  0.000000E+00  0.000000E+00  0.000000E+00  0.000000E+00  0.000000E+00  0.000000E+00  5.503213E-01 -1.196229E-02 -2.116814E-03  5.501872E-01                                                                                                                                                                                                                                                                                                                                                                                                                                                                                              