Title="TOUGHREACT V3.30-OMP flowvector.tec: Liq & Gas Fluxes (kg/s/m^2), Pore Velocities (m/s), & Heat Fluxes (J/s/m2)"                                                                                                                                                                                                                                                                                                                                                                                                                                                                                                                                                                                                                                                                                                         
Variables= "X(m)"     "Y(m)"      "Z(m)"     "FluxLiq"   "FluxLiq_X"   "FluxLiq_Y"   "FluxLiq_Z"   "PorVelLiq"  "PorVelLiqX"  "PorVelLiqY"  "PorVelLiqZ"     "FluxGas"   "FluxGas_X"   "FluxGas_Y"   "FluxGas_Z"   "PorVelGas"  "PorVelGasX"  "PorVelGasY"  "PorVelGasZ"    "HeatFlux"  "HeatFlux_X"  "HeatFlux_Y"  "HeatFlux_Z"                                                                                                                                                                                                                                                                                                                                                                                                                                                                                                
Zone T= "5.18400000E+05 sec" I=     9 J=    10 K=    23 F=Point
  1.250000E+02  1.250000E+02 -5.425000E+03  4.572716E-08 -4.379030E-08  7.246101E-10  1.314755E-08  2.580759E-10 -2.472348E-10  4.091503E-12  7.390102E-11  0.000000E+00  0.000000E+00  0.000000E+00  0.000000E+00  0.000000E+00  0.000000E+00  0.000000E+00  0.000000E+00  1.334129E-01 -3.777062E-02 -3.944955E-04  1.279540E-01                                                                                                                                                                                                                                                                                                                                                                                                                                                                                              
  3.750000E+02  1.250000E+02 -5.425000E+03  1.165590E-07 -1.163679E-07  7.050513E-10  6.634533E-09  6.580188E-10 -6.569495E-10  3.980564E-12  3.728648E-11  0.000000E+00  0.000000E+00  0.000000E+00  0.000000E+00  0.000000E+00  0.000000E+00  0.000000E+00  0.000000E+00  1.589804E-01 -1.009746E-01 -3.662500E-04  1.227956E-01                                                                                                                                                                                                                                                                                                                                                                                                                                                                                              
  6.250000E+02  1.250000E+02 -5.425000E+03  1.448769E-07 -1.443448E-07  6.718291E-10 -1.238717E-08  8.177954E-10 -8.148235E-10  3.792473E-12 -6.955350E-11  0.000000E+00  0.000000E+00  0.000000E+00  0.000000E+00  0.000000E+00  0.000000E+00  0.000000E+00  0.000000E+00  1.660422E-01 -1.268056E-01 -3.257910E-04  1.071927E-01                                                                                                                                                                                                                                                                                                                                                                                                                                                                                              
  8.750000E+02  1.250000E+02 -5.425000E+03  1.137945E-07 -1.074814E-07  6.426526E-10 -3.737025E-08  6.419907E-10 -6.067238E-10  3.627710E-12 -2.098218E-10  0.000000E+00  0.000000E+00  0.000000E+00  0.000000E+00  0.000000E+00  0.000000E+00  0.000000E+00  0.000000E+00  1.311495E-01 -9.803555E-02 -2.964132E-04  8.711561E-02                                                                                                                                                                                                                                                                                                                                                                                                                                                                                              
  1.050000E+03  1.250000E+02 -5.425000E+03  4.837644E-08  1.449840E-11  6.452792E-10 -4.837214E-08  2.716497E-10  8.184726E-14  3.643285E-12 -2.716252E-10  0.000000E+00  0.000000E+00  0.000000E+00  0.000000E+00  0.000000E+00  0.000000E+00  0.000000E+00  0.000000E+00  8.003132E-02  1.290382E-05 -2.868778E-04  8.003080E-02                                                                                                                                                                                                                                                                                                                                                                                                                                                                                              
  1.225000E+03  1.250000E+02 -5.425000E+03  1.138202E-07  1.075089E-07  6.425905E-10 -3.736924E-08  6.421359E-10  6.068793E-10  3.627359E-12 -2.098161E-10  0.000000E+00  0.000000E+00  0.000000E+00  0.000000E+00  0.000000E+00  0.000000E+00  0.000000E+00  0.000000E+00  1.311684E-01  9.806004E-02 -2.964852E-04  8.711646E-02                                                                                                                                                                                                                                                                                                                                                                                                                                                                                              
  1.475000E+03  1.250000E+02 -5.425000E+03  1.448995E-07  1.443677E-07  6.717136E-10 -1.238480E-08  8.179227E-10  8.149524E-10  3.791821E-12 -6.954017E-11  0.000000E+00  0.000000E+00  0.000000E+00  0.000000E+00  0.000000E+00  0.000000E+00  0.000000E+00  0.000000E+00  1.660590E-01  1.268258E-01 -3.258927E-04  1.071947E-01                                                                                                                                                                                                                                                                                                                                                                                                                                                                                              
  1.725000E+03  1.250000E+02 -5.425000E+03  1.165742E-07  1.163829E-07  7.048611E-10  6.637972E-09  6.581045E-10  6.570342E-10  3.979491E-12  3.730580E-11  0.000000E+00  0.000000E+00  0.000000E+00  0.000000E+00  0.000000E+00  0.000000E+00  0.000000E+00  0.000000E+00  1.589912E-01  1.009879E-01 -3.664280E-04  1.227987E-01                                                                                                                                                                                                                                                                                                                                                                                                                                                                                              
  1.975000E+03  1.250000E+02 -5.425000E+03  4.573328E-08  4.379551E-08  7.243768E-10  1.315145E-08  2.581104E-10  2.472643E-10  4.090186E-12  7.392295E-11  0.000000E+00  0.000000E+00  0.000000E+00  0.000000E+00  0.000000E+00  0.000000E+00  0.000000E+00  0.000000E+00  1.334175E-01  3.777526E-02 -3.947168E-04  1.279574E-01                                                                                                                                                                                                                                                                                                                                                                                                                                                                                              
  1.250000E+02  1.250000E+02 -5.225000E+03  4.763131E-08 -4.703388E-08  5.229218E-10  7.502164E-09  2.664318E-10 -2.629779E-10  2.924191E-12  4.266112E-11  0.000000E+00  0.000000E+00  0.000000E+00  0.000000E+00  0.000000E+00  0.000000E+00  0.000000E+00  0.000000E+00  3.308723E-01 -3.822544E-02 -8.176605E-04  3.286557E-01                                                                                                                                                                                                                                                                                                                                                                                                                                                                                              
  3.750000E+02  1.250000E+02 -5.225000E+03  1.319475E-07 -1.318850E-07  5.103155E-10 -4.029166E-09  7.376448E-10 -7.373198E-10  2.853200E-12 -2.170835E-11  0.000000E+00  0.000000E+00  0.000000E+00  0.000000E+00  0.000000E+00  0.000000E+00  0.000000E+00  0.000000E+00  3.393526E-01 -1.082174E-01 -7.653559E-04  3.216343E-01                                                                                                                                                                                                                                                                                                                                                                                                                                                                                              
  6.250000E+02  1.250000E+02 -5.225000E+03  1.771714E-07 -1.741412E-07  4.892209E-10 -3.262361E-08  9.902015E-10 -9.734256E-10  2.734718E-12 -1.814777E-10  0.000000E+00  0.000000E+00  0.000000E+00  0.000000E+00  0.000000E+00  0.000000E+00  0.000000E+00  0.000000E+00  3.335836E-01 -1.446009E-01 -6.889453E-04  3.006130E-01                                                                                                                                                                                                                                                                                                                                                                                                                                                                                              
  8.750000E+02  1.250000E+02 -5.225000E+03  1.571291E-07 -1.367339E-07  4.687166E-10 -7.741552E-08  8.775465E-10 -7.642549E-10  2.619828E-12 -4.312719E-10  0.000000E+00  0.000000E+00  0.000000E+00  0.000000E+00  0.000000E+00  0.000000E+00  0.000000E+00  0.000000E+00  2.905380E-01 -1.149162E-01 -6.358917E-04  2.668449E-01                                                                                                                                                                                                                                                                                                                                                                                                                                                                                              
  1.050000E+03  1.250000E+02 -5.225000E+03  9.525724E-08  1.516231E-11  4.731290E-10 -9.525606E-08  5.308995E-10  8.474515E-14  2.644531E-12 -5.308929E-10  0.000000E+00  0.000000E+00  0.000000E+00  0.000000E+00  0.000000E+00  0.000000E+00  0.000000E+00  0.000000E+00  2.549634E-01  1.284732E-05 -6.245364E-04  2.549626E-01                                                                                                                                                                                                                                                                                                                                                                                                                                                                                              
  1.225000E+03  1.250000E+02 -5.225000E+03  1.571526E-07  1.367628E-07  4.686418E-10 -7.741227E-08  8.776782E-10  7.644163E-10  2.619411E-12 -4.312539E-10  0.000000E+00  0.000000E+00  0.000000E+00  0.000000E+00  0.000000E+00  0.000000E+00  0.000000E+00  0.000000E+00  2.905500E-01  1.149406E-01 -6.359733E-04  2.668474E-01                                                                                                                                                                                                                                                                                                                                                                                                                                                                                              
  1.475000E+03  1.250000E+02 -5.225000E+03  1.771935E-07  1.741651E-07  4.890777E-10 -3.261633E-08  9.903255E-10  9.735593E-10  2.733917E-12 -1.814372E-10  0.000000E+00  0.000000E+00  0.000000E+00  0.000000E+00  0.000000E+00  0.000000E+00  0.000000E+00  0.000000E+00  3.335976E-01  1.446211E-01 -6.890695E-04  3.006187E-01                                                                                                                                                                                                                                                                                                                                                                                                                                                                                              
  1.725000E+03  1.250000E+02 -5.225000E+03  1.319628E-07  1.319006E-07  5.100840E-10 -4.018900E-09  7.377303E-10  7.374070E-10  2.851906E-12 -2.165125E-11  0.000000E+00  0.000000E+00  0.000000E+00  0.000000E+00  0.000000E+00  0.000000E+00  0.000000E+00  0.000000E+00  3.393647E-01  1.082306E-01 -7.655378E-04  3.216425E-01                                                                                                                                                                                                                                                                                                                                                                                                                                                                                              
  1.975000E+03  1.250000E+02 -5.225000E+03  4.763849E-08  4.703928E-08  5.227068E-10  7.513892E-09  2.664721E-10  2.630081E-10  2.922989E-12  4.272636E-11  0.000000E+00  0.000000E+00  0.000000E+00  0.000000E+00  0.000000E+00  0.000000E+00  0.000000E+00  0.000000E+00  3.308821E-01  3.823001E-02 -8.178366E-04  3.286651E-01                                                                                                                                                                                                                                                                                                                                                                                                                                                                                              
  1.250000E+02  1.250000E+02 -4.975000E+03  4.966693E-08 -4.753051E-08  3.561730E-10  1.440583E-08  2.716742E-10 -2.604307E-10  1.952043E-12  7.732347E-11  0.000000E+00  0.000000E+00  0.000000E+00  0.000000E+00  0.000000E+00  0.000000E+00  0.000000E+00  0.000000E+00  4.916195E-01 -3.248580E-02 -1.709234E-03  4.905420E-01                                                                                                                                                                                                                                                                                                                                                                                                                                                                                              
  3.750000E+02  1.250000E+02 -4.975000E+03  1.343670E-07 -1.342085E-07  3.463518E-10  6.515800E-09  7.359881E-10 -7.352012E-10  1.897561E-12  3.397105E-11  0.000000E+00  0.000000E+00  0.000000E+00  0.000000E+00  0.000000E+00  0.000000E+00  0.000000E+00  0.000000E+00  5.003086E-01 -9.444144E-02 -1.583049E-03  4.913115E-01                                                                                                                                                                                                                                                                                                                                                                                                                                                                                              
  6.250000E+02  1.250000E+02 -4.975000E+03  1.882087E-07 -1.879930E-07  3.303964E-10 -9.001852E-09  1.030833E-09 -1.029561E-09  1.809502E-12 -5.115605E-11  0.000000E+00  0.000000E+00  0.000000E+00  0.000000E+00  0.000000E+00  0.000000E+00  0.000000E+00  0.000000E+00  5.030384E-01 -1.363366E-01 -1.413064E-03  4.842086E-01                                                                                                                                                                                                                                                                                                                                                                                                                                                                                              
  8.750000E+02  1.250000E+02 -4.975000E+03  1.547252E-07 -1.545625E-07  3.256962E-10 -7.085565E-09  8.474350E-10 -8.463305E-10  1.783377E-12 -4.321506E-11  0.000000E+00  0.000000E+00  0.000000E+00  0.000000E+00  0.000000E+00  0.000000E+00  0.000000E+00  0.000000E+00  5.015586E-01 -1.142634E-01 -1.306575E-03  4.883679E-01                                                                                                                                                                                                                                                                                                                                                                                                                                                                                              
  1.050000E+03  1.250000E+02 -4.975000E+03  1.602414E-08  1.710592E-11  3.340637E-10 -1.602065E-08  9.239323E-11  9.365880E-14  1.829158E-12 -9.237508E-11  0.000000E+00  0.000000E+00  0.000000E+00  0.000000E+00  0.000000E+00  0.000000E+00  0.000000E+00  0.000000E+00  4.823586E-01  1.294156E-05 -1.299588E-03  4.823569E-01                                                                                                                                                                                                                                                                                                                                                                                                                                                                                              
  1.225000E+03  1.250000E+02 -4.975000E+03  1.547572E-07  1.545949E-07  3.255754E-10 -7.079329E-09  8.476101E-10  8.465076E-10  1.782716E-12 -4.318106E-11  0.000000E+00  0.000000E+00  0.000000E+00  0.000000E+00  0.000000E+00  0.000000E+00  0.000000E+00  0.000000E+00  5.015687E-01  1.142878E-01 -1.306666E-03  4.883726E-01                                                                                                                                                                                                                                                                                                                                                                                                                                                                                              
  1.475000E+03  1.250000E+02 -4.975000E+03  1.882345E-07  1.880195E-07  3.302563E-10 -8.987953E-09  1.030974E-09  1.029706E-09  1.808735E-12 -5.108027E-11  0.000000E+00  0.000000E+00  0.000000E+00  0.000000E+00  0.000000E+00  0.000000E+00  0.000000E+00  0.000000E+00  5.030539E-01  1.363567E-01 -1.413169E-03  4.842191E-01                                                                                                                                                                                                                                                                                                                                                                                                                                                                                              
  1.725000E+03  1.250000E+02 -4.975000E+03  1.343851E-07  1.342257E-07  3.461736E-10  6.535017E-09  7.360871E-10  7.352955E-10  1.896585E-12  3.407587E-11  0.000000E+00  0.000000E+00  0.000000E+00  0.000000E+00  0.000000E+00  0.000000E+00  0.000000E+00  0.000000E+00  5.003254E-01  9.445447E-02 -1.583187E-03  4.913261E-01                                                                                                                                                                                                                                                                                                                                                                                                                                                                                              
  1.975000E+03  1.250000E+02 -4.975000E+03  4.967893E-08  4.753645E-08  3.559005E-10  1.442759E-08  2.717393E-10  2.604633E-10  1.950550E-12  7.744219E-11  0.000000E+00  0.000000E+00  0.000000E+00  0.000000E+00  0.000000E+00  0.000000E+00  0.000000E+00  0.000000E+00  4.916362E-01  3.249031E-02 -1.709437E-03  4.905585E-01                                                                                                                                                                                                                                                                                                                                                                                                                                                                                              
  1.250000E+02  1.250000E+02 -4.725000E+03  1.136122E-06 -4.218944E-08  2.538368E-10  1.135338E-06  6.028895E-09 -2.255940E-10  1.357935E-12  6.024673E-09  0.000000E+00  0.000000E+00  0.000000E+00  0.000000E+00  0.000000E+00  0.000000E+00  0.000000E+00  0.000000E+00  1.314298E+00 -1.859050E-02 -2.967504E-03  1.314163E+00                                                                                                                                                                                                                                                                                                                                                                                                                                                                                              
  3.750000E+02  1.250000E+02 -4.725000E+03  1.214787E-06 -1.207215E-07  2.434202E-10  1.208774E-06  6.439773E-09 -6.452621E-10  1.301281E-12  6.407364E-09  0.000000E+00  0.000000E+00  0.000000E+00  0.000000E+00  0.000000E+00  0.000000E+00  0.000000E+00  0.000000E+00  1.376865E+00 -6.213278E-02 -2.651958E-03  1.375460E+00                                                                                                                                                                                                                                                                                                                                                                                                                                                                                              
  6.250000E+02  1.250000E+02 -4.725000E+03  1.362212E-06 -1.465016E-07  2.413307E-10  1.354311E-06  7.216477E-09 -7.827369E-10  1.289401E-12  7.173901E-09  0.000000E+00  0.000000E+00  0.000000E+00  0.000000E+00  0.000000E+00  0.000000E+00  0.000000E+00  0.000000E+00  1.472210E+00 -8.309534E-02 -2.307596E-03  1.469862E+00                                                                                                                                                                                                                                                                                                                                                                                                                                                                                              
  8.750000E+02  1.250000E+02 -4.725000E+03  1.513065E-06 -1.160859E-07  2.447859E-10  1.508606E-06  8.015217E-09 -6.200417E-10  1.307463E-12  7.991198E-09  0.000000E+00  0.000000E+00  0.000000E+00  0.000000E+00  0.000000E+00  0.000000E+00  0.000000E+00  0.000000E+00  1.572433E+00 -6.922234E-02 -2.219300E-03  1.570907E+00                                                                                                                                                                                                                                                                                                                                                                                                                                                                                              
  1.050000E+03  1.250000E+02 -4.725000E+03  1.573065E-06  1.952355E-11  2.802848E-10  1.573065E-06  8.331476E-09  1.042694E-13  1.497011E-12  8.331476E-09  0.000000E+00  0.000000E+00  0.000000E+00  0.000000E+00  0.000000E+00  0.000000E+00  0.000000E+00  0.000000E+00  1.613836E+00  1.240921E-05 -2.327793E-03  1.613834E+00                                                                                                                                                                                                                                                                                                                                                                                                                                                                                              
  1.225000E+03  1.250000E+02 -4.725000E+03  1.513045E-06  1.161228E-07  2.446668E-10  1.508582E-06  8.015109E-09  6.202384E-10  1.306827E-12  7.991075E-09  0.000000E+00  0.000000E+00  0.000000E+00  0.000000E+00  0.000000E+00  0.000000E+00  0.000000E+00  0.000000E+00  1.572420E+00  6.924574E-02 -2.219375E-03  1.570893E+00                                                                                                                                                                                                                                                                                                                                                                                                                                                                                              
  1.475000E+03  1.250000E+02 -4.725000E+03  1.362162E-06  1.465315E-07  2.411400E-10  1.354258E-06  7.216214E-09  7.828964E-10  1.288382E-12  7.173619E-09  0.000000E+00  0.000000E+00  0.000000E+00  0.000000E+00  0.000000E+00  0.000000E+00  0.000000E+00  0.000000E+00  1.472178E+00  8.311433E-02 -2.307719E-03  1.469829E+00                                                                                                                                                                                                                                                                                                                                                                                                                                                                                              
  1.725000E+03  1.250000E+02 -4.725000E+03  1.214714E-06  1.207404E-07  2.432009E-10  1.208698E-06  6.439387E-09  6.453634E-10  1.300109E-12  6.406965E-09  0.000000E+00  0.000000E+00  0.000000E+00  0.000000E+00  0.000000E+00  0.000000E+00  0.000000E+00  0.000000E+00  1.376819E+00  6.214487E-02 -2.652096E-03  1.375413E+00                                                                                                                                                                                                                                                                                                                                                                                                                                                                                              