Title="TOUGHREACT V3.30-OMP flowvector.tec: Liq & Gas Fluxes (kg/s/m^2), Pore Velocities (m/s), & Heat Fluxes (J/s/m2)"                                                                                                                                                                                                                                                                                                                                                                                                                                                                                                                                                                                                                                                                                                         
Variables= "X(m)"     "Y(m)"      "Z(m)"     "FluxLiq"   "FluxLiq_X"   "FluxLiq_Y"   "FluxLiq_Z"   "PorVelLiq"  "PorVelLiqX"  "PorVelLiqY"  "PorVelLiqZ"     "FluxGas"   "FluxGas_X"   "FluxGas_Y"   "FluxGas_Z"   "PorVelGas"  "PorVelGasX"  "PorVelGasY"  "PorVelGasZ"    "HeatFlux"  "HeatFlux_X"  "HeatFlux_Y"  "HeatFlux_Z"                                                                                                                                                                                                                                                                                                                                                                                                                                                                                                
Zone T= "1.00000000E+06 sec" I=     9 J=    10 K=    23 F=Point
  1.250000E+02  1.250000E+02 -5.425000E+03  4.492196E-08 -4.351603E-08  7.257731E-10  1.112703E-08  2.535552E-10 -2.456862E-10  4.098068E-12  6.254381E-11  0.000000E+00  0.000000E+00  0.000000E+00  0.000000E+00  0.000000E+00  0.000000E+00  0.000000E+00  0.000000E+00  1.316200E-01 -3.752694E-02 -3.934668E-04  1.261563E-01                                                                                                                                                                                                                                                                                                                                                                                                                                                                                              
  3.750000E+02  1.250000E+02 -5.425000E+03  1.159884E-07 -1.158826E-07  7.062093E-10  4.903179E-09  6.548015E-10 -6.542093E-10  3.987101E-12  2.755615E-11  0.000000E+00  0.000000E+00  0.000000E+00  0.000000E+00  0.000000E+00  0.000000E+00  0.000000E+00  0.000000E+00  1.575184E-01 -1.005434E-01 -3.652261E-04  1.212557E-01                                                                                                                                                                                                                                                                                                                                                                                                                                                                                              
  6.250000E+02  1.250000E+02 -5.425000E+03  1.444841E-07 -1.439540E-07  6.729853E-10 -1.234684E-08  8.155776E-10 -8.126169E-10  3.798998E-12 -6.932700E-11  0.000000E+00  0.000000E+00  0.000000E+00  0.000000E+00  0.000000E+00  0.000000E+00  0.000000E+00  0.000000E+00  1.657981E-01 -1.264584E-01 -3.247694E-04  1.072249E-01                                                                                                                                                                                                                                                                                                                                                                                                                                                                                              
  8.750000E+02  1.250000E+02 -5.425000E+03  1.081215E-07 -1.022737E-07  6.443406E-10 -3.507036E-08  6.099924E-10 -5.773252E-10  3.637237E-12 -1.969087E-10  0.000000E+00  0.000000E+00  0.000000E+00  0.000000E+00  0.000000E+00  0.000000E+00  0.000000E+00  0.000000E+00  1.290610E-01 -9.340726E-02 -2.949194E-04  8.906033E-02                                                                                                                                                                                                                                                                                                                                                                                                                                                                                              
  1.050000E+03  1.250000E+02 -5.425000E+03  4.361482E-08 -2.288430E-11  6.454087E-10 -4.361004E-08  2.449125E-10 -1.291882E-13  3.644022E-12 -2.448853E-10  0.000000E+00  0.000000E+00  0.000000E+00  0.000000E+00  0.000000E+00  0.000000E+00  0.000000E+00  0.000000E+00  8.406000E-02 -2.031502E-05 -2.867684E-04  8.405950E-02                                                                                                                                                                                                                                                                                                                                                                                                                                                                                              
  1.225000E+03  1.250000E+02 -5.425000E+03  1.080808E-07  1.022301E-07  6.444164E-10 -3.507201E-08  6.097628E-10  5.770795E-10  3.637664E-12 -1.969180E-10  0.000000E+00  0.000000E+00  0.000000E+00  0.000000E+00  0.000000E+00  0.000000E+00  0.000000E+00  0.000000E+00  1.290321E-01  9.336861E-02 -2.948689E-04  8.905893E-02                                                                                                                                                                                                                                                                                                                                                                                                                                                                                              
  1.475000E+03  1.250000E+02 -5.425000E+03  1.444485E-07  1.439180E-07  6.731892E-10 -1.235048E-08  8.153767E-10  8.124135E-10  3.800149E-12 -6.934743E-11  0.000000E+00  0.000000E+00  0.000000E+00  0.000000E+00  0.000000E+00  0.000000E+00  0.000000E+00  0.000000E+00  1.657717E-01  1.264264E-01 -3.245875E-04  1.072218E-01                                                                                                                                                                                                                                                                                                                                                                                                                                                                                              
  1.725000E+03  1.250000E+02 -5.425000E+03  1.159647E-07  1.158591E-07  7.064705E-10  4.897838E-09  6.546675E-10  6.540764E-10  3.988575E-12  2.752613E-11  0.000000E+00  0.000000E+00  0.000000E+00  0.000000E+00  0.000000E+00  0.000000E+00  0.000000E+00  0.000000E+00  1.575014E-01  1.005225E-01 -3.650030E-04  1.212510E-01                                                                                                                                                                                                                                                                                                                                                                                                                                                                                              
  1.975000E+03  1.250000E+02 -5.425000E+03  4.491254E-08  4.350788E-08  7.260560E-10  1.112086E-08  2.535021E-10  2.456402E-10  4.099665E-12  6.250916E-11  0.000000E+00  0.000000E+00  0.000000E+00  0.000000E+00  0.000000E+00  0.000000E+00  0.000000E+00  0.000000E+00  1.316127E-01  3.751971E-02 -3.932293E-04  1.261508E-01                                                                                                                                                                                                                                                                                                                                                                                                                                                                                              
  1.250000E+02  1.250000E+02 -5.225000E+03  4.708231E-08 -4.654668E-08  5.246272E-10  7.062249E-09  2.633336E-10 -2.602535E-10  2.933724E-12  4.005055E-11  0.000000E+00  0.000000E+00  0.000000E+00  0.000000E+00  0.000000E+00  0.000000E+00  0.000000E+00  0.000000E+00  3.302321E-01 -3.781255E-02 -8.162178E-04  3.280591E-01                                                                                                                                                                                                                                                                                                                                                                                                                                                                                              
  3.750000E+02  1.250000E+02 -5.225000E+03  1.298947E-07 -1.298289E-07  5.119072E-10 -4.100700E-09  7.261714E-10 -7.258247E-10  2.862096E-12 -2.225603E-11  0.000000E+00  0.000000E+00  0.000000E+00  0.000000E+00  0.000000E+00  0.000000E+00  0.000000E+00  0.000000E+00  3.385345E-01 -1.064761E-01 -7.640106E-04  3.213532E-01                                                                                                                                                                                                                                                                                                                                                                                                                                                                                              
  6.250000E+02  1.250000E+02 -5.225000E+03  1.733739E-07 -1.705838E-07  4.908276E-10 -3.097478E-08  9.689956E-10 -9.535401E-10  2.743699E-12 -1.723549E-10  0.000000E+00  0.000000E+00  0.000000E+00  0.000000E+00  0.000000E+00  0.000000E+00  0.000000E+00  0.000000E+00  3.334202E-01 -1.415892E-01 -6.875886E-04  3.018626E-01                                                                                                                                                                                                                                                                                                                                                                                                                                                                                              
  8.750000E+02  1.250000E+02 -5.225000E+03  1.459453E-07 -1.270648E-07  4.713300E-10 -7.179374E-08  8.151078E-10 -7.102129E-10  2.634438E-12 -3.999893E-10  0.000000E+00  0.000000E+00  0.000000E+00  0.000000E+00  0.000000E+00  0.000000E+00  0.000000E+00  0.000000E+00  2.915414E-01 -1.067315E-01 -6.336837E-04  2.713013E-01                                                                                                                                                                                                                                                                                                                                                                                                                                                                                              
  1.050000E+03  1.250000E+02 -5.225000E+03  8.596120E-08 -2.398622E-11  4.742584E-10 -8.595989E-08  4.790883E-10 -1.340643E-13  2.650855E-12 -4.790810E-10  0.000000E+00  0.000000E+00  0.000000E+00  0.000000E+00  0.000000E+00  0.000000E+00  0.000000E+00  0.000000E+00  2.624200E-01 -2.028868E-05 -6.235846E-04  2.624192E-01                                                                                                                                                                                                                                                                                                                                                                                                                                                                                              
  1.225000E+03  1.250000E+02 -5.225000E+03  1.459081E-07  1.270192E-07  4.714002E-10 -7.179878E-08  8.148997E-10  7.099584E-10  2.634830E-12 -4.000172E-10  0.000000E+00  0.000000E+00  0.000000E+00  0.000000E+00  0.000000E+00  0.000000E+00  0.000000E+00  0.000000E+00  2.915237E-01  1.066930E-01 -6.336426E-04  2.712973E-01                                                                                                                                                                                                                                                                                                                                                                                                                                                                                              
  1.475000E+03  1.250000E+02 -5.225000E+03  1.733389E-07  1.705462E-07  4.910082E-10 -3.098616E-08  9.688000E-10  9.533299E-10  2.744708E-12 -1.724181E-10  0.000000E+00  0.000000E+00  0.000000E+00  0.000000E+00  0.000000E+00  0.000000E+00  0.000000E+00  0.000000E+00  3.333986E-01  1.415573E-01 -6.874385E-04  3.018537E-01                                                                                                                                                                                                                                                                                                                                                                                                                                                                                              
  1.725000E+03  1.250000E+02 -5.225000E+03  1.298707E-07  1.298044E-07  5.121480E-10 -4.116857E-09  7.260369E-10  7.256873E-10  2.863443E-12 -2.234589E-11  0.000000E+00  0.000000E+00  0.000000E+00  0.000000E+00  0.000000E+00  0.000000E+00  0.000000E+00  0.000000E+00  3.385157E-01  1.064552E-01 -7.637922E-04  3.213403E-01                                                                                                                                                                                                                                                                                                                                                                                                                                                                                              
  1.975000E+03  1.250000E+02 -5.225000E+03  4.707113E-08  4.653817E-08  5.249482E-10  7.043760E-09  2.632709E-10  2.602060E-10  2.935519E-12  3.994770E-11  0.000000E+00  0.000000E+00  0.000000E+00  0.000000E+00  0.000000E+00  0.000000E+00  0.000000E+00  0.000000E+00  3.302166E-01  3.780534E-02 -8.159392E-04  3.280443E-01                                                                                                                                                                                                                                                                                                                                                                                                                                                                                              
  1.250000E+02  1.250000E+02 -4.975000E+03  6.373880E-08 -4.700119E-08  3.625884E-10  4.305103E-08  3.470333E-10 -2.575305E-10  1.987203E-12  2.326075E-10  0.000000E+00  0.000000E+00  0.000000E+00  0.000000E+00  0.000000E+00  0.000000E+00  0.000000E+00  0.000000E+00  5.133169E-01 -3.208427E-02 -1.704358E-03  5.123104E-01                                                                                                                                                                                                                                                                                                                                                                                                                                                                                              
  3.750000E+02  1.250000E+02 -4.975000E+03  1.375218E-07 -1.322914E-07  3.524094E-10  3.756486E-08  7.523801E-10 -7.246999E-10  1.930749E-12  2.021936E-10  0.000000E+00  0.000000E+00  0.000000E+00  0.000000E+00  0.000000E+00  0.000000E+00  0.000000E+00  0.000000E+00  5.231934E-01 -9.298919E-02 -1.578454E-03  5.148610E-01                                                                                                                                                                                                                                                                                                                                                                                                                                                                                              
  6.250000E+02  1.250000E+02 -4.975000E+03  1.850591E-07 -1.830545E-07  3.368401E-10  2.716209E-08  1.012902E-09 -1.002518E-09  1.844794E-12  1.446534E-10  0.000000E+00  0.000000E+00  0.000000E+00  0.000000E+00  0.000000E+00  0.000000E+00  0.000000E+00  0.000000E+00  5.284910E-01 -1.326006E-01 -1.408186E-03  5.115836E-01                                                                                                                                                                                                                                                                                                                                                                                                                                                                                              
  8.750000E+02  1.250000E+02 -4.975000E+03  1.459798E-07 -1.422369E-07  3.329497E-10  3.284278E-08  7.978544E-10 -7.788452E-10  1.823099E-12  1.731140E-10  0.000000E+00  0.000000E+00  0.000000E+00  0.000000E+00  0.000000E+00  0.000000E+00  0.000000E+00  0.000000E+00  5.290713E-01 -1.049430E-01 -1.301090E-03  5.185574E-01                                                                                                                                                                                                                                                                                                                                                                                                                                                                                              
  1.050000E+03  1.250000E+02 -4.975000E+03  2.620901E-08 -2.682222E-11  3.417149E-10  2.620676E-08  1.365414E-10 -1.468585E-13  1.871065E-12  1.365285E-10  0.000000E+00  0.000000E+00  0.000000E+00  0.000000E+00  0.000000E+00  0.000000E+00  0.000000E+00  0.000000E+00  5.142823E-01 -2.027093E-05 -1.293803E-03  5.142806E-01                                                                                                                                                                                                                                                                                                                                                                                                                                                                                              
  1.225000E+03  1.250000E+02 -4.975000E+03  1.459280E-07  1.421860E-07  3.329960E-10  3.283331E-08  7.975710E-10  7.785664E-10  1.823353E-12  1.730624E-10  0.000000E+00  0.000000E+00  0.000000E+00  0.000000E+00  0.000000E+00  0.000000E+00  0.000000E+00  0.000000E+00  5.290567E-01  1.049045E-01 -1.301055E-03  5.185502E-01                                                                                                                                                                                                                                                                                                                                                                                                                                                                                              
  1.475000E+03  1.250000E+02 -4.975000E+03  1.850145E-07  1.830126E-07  3.370511E-10  2.714093E-08  1.012658E-09  1.002289E-09  1.845950E-12  1.445380E-10  0.000000E+00  0.000000E+00  0.000000E+00  0.000000E+00  0.000000E+00  0.000000E+00  0.000000E+00  0.000000E+00  5.284675E-01  1.325689E-01 -1.408025E-03  5.115676E-01                                                                                                                                                                                                                                                                                                                                                                                                                                                                                              
  1.725000E+03  1.250000E+02 -4.975000E+03  1.374877E-07  1.322643E-07  3.527418E-10  3.753543E-08  7.521941E-10  7.245515E-10  1.932570E-12  2.020330E-10  0.000000E+00  0.000000E+00  0.000000E+00  0.000000E+00  0.000000E+00  0.000000E+00  0.000000E+00  0.000000E+00  5.231678E-01  9.296869E-02 -1.578205E-03  5.148386E-01                                                                                                                                                                                                                                                                                                                                                                                                                                                                                              
  1.975000E+03  1.250000E+02 -4.975000E+03  6.370948E-08  4.699189E-08  3.629237E-10  4.301777E-08  3.468738E-10  2.574795E-10  1.989041E-12  2.324259E-10  0.000000E+00  0.000000E+00  0.000000E+00  0.000000E+00  0.000000E+00  0.000000E+00  0.000000E+00  0.000000E+00  5.132912E-01  3.207722E-02 -1.704099E-03  5.122851E-01                                                                                                                                                                                                                                                                                                                                                                                                                                                                                              
  1.250000E+02  1.250000E+02 -4.725000E+03  8.961642E-07 -3.971843E-08  2.826520E-10  8.952835E-07  4.758932E-09 -2.123848E-10  1.512111E-12  4.754191E-09  0.000000E+00  0.000000E+00  0.000000E+00  0.000000E+00  0.000000E+00  0.000000E+00  0.000000E+00  0.000000E+00  1.163046E+00 -1.700859E-02 -2.948952E-03  1.162917E+00                                                                                                                                                                                                                                                                                                                                                                                                                                                                                              
  3.750000E+02  1.250000E+02 -4.725000E+03  9.738882E-07 -1.126251E-07  2.718342E-10  9.673540E-07  5.166477E-09 -6.019994E-10  1.453204E-12  5.131284E-09  0.000000E+00  0.000000E+00  0.000000E+00  0.000000E+00  0.000000E+00  0.000000E+00  0.000000E+00  0.000000E+00  1.225829E+00 -5.696439E-02 -2.633765E-03  1.224502E+00                                                                                                                                                                                                                                                                                                                                                                                                                                                                                              
  6.250000E+02  1.250000E+02 -4.725000E+03  1.116147E-06 -1.360524E-07  2.700709E-10  1.107824E-06  5.917122E-09 -7.269237E-10  1.442987E-12  5.872300E-09  0.000000E+00  0.000000E+00  0.000000E+00  0.000000E+00  0.000000E+00  0.000000E+00  0.000000E+00  0.000000E+00  1.319175E+00 -7.644027E-02 -2.289271E-03  1.316956E+00                                                                                                                                                                                                                                                                                                                                                                                                                                                                                              
  8.750000E+02  1.250000E+02 -4.725000E+03  1.259288E-06 -1.024036E-07  2.781311E-10  1.255117E-06  6.675598E-09 -5.469780E-10  1.485604E-12  6.653152E-09  0.000000E+00  0.000000E+00  0.000000E+00  0.000000E+00  0.000000E+00  0.000000E+00  0.000000E+00  0.000000E+00  1.415466E+00 -6.052263E-02 -2.198089E-03  1.414170E+00                                                                                                                                                                                                                                                                                                                                                                                                                                                                                              
  1.050000E+03  1.250000E+02 -4.725000E+03  1.308283E-06 -3.038592E-11  3.166329E-10  1.308283E-06  6.933918E-09 -1.622863E-13  1.691197E-12  6.933918E-09  0.000000E+00  0.000000E+00  0.000000E+00  0.000000E+00  0.000000E+00  0.000000E+00  0.000000E+00  0.000000E+00  1.450108E+00 -1.930677E-05 -2.304680E-03  1.450106E+00                                                                                                                                                                                                                                                                                                                                                                                                                                                                                              
  1.225000E+03  1.250000E+02 -4.725000E+03  1.259320E-06  1.023464E-07  2.781661E-10  1.255154E-06  6.675766E-09  5.466720E-10  1.485791E-12  6.653345E-09  0.000000E+00  0.000000E+00  0.000000E+00  0.000000E+00  0.000000E+00  0.000000E+00  0.000000E+00  0.000000E+00  1.415487E+00  6.048622E-02 -2.198066E-03  1.414193E+00                                                                                                                                                                                                                                                                                                                                                                                                                                                                                              
  1.475000E+03  1.250000E+02 -4.725000E+03  1.116224E-06  1.360058E-07  2.702886E-10  1.107907E-06  5.917529E-09  7.266748E-10  1.444150E-12  5.872742E-09  0.000000E+00  0.000000E+00  0.000000E+00  0.000000E+00  0.000000E+00  0.000000E+00  0.000000E+00  0.000000E+00  1.319225E+00  7.641063E-02 -2.289134E-03  1.317008E+00                                                                                                                                                                                                                                                                                                                                                                                                                                                                                              
  1.725000E+03  1.250000E+02 -4.725000E+03  9.740027E-07  1.125955E-07  2.721961E-10  9.674727E-07  5.167081E-09  6.018410E-10  1.455138E-12  5.131911E-09  0.000000E+00  0.000000E+00  0.000000E+00  0.000000E+00  0.000000E+00  0.000000E+00  0.000000E+00  0.000000E+00  1.225902E+00  5.694550E-02 -2.633531E-03  1.224576E+00                                                                                                                                                                                                                                                                                                                                                                                                                                                                                              