Title="TOUGHREACT V3.30-OMP flowvector.tec: Liq & Gas Fluxes (kg/s/m^2), Pore Velocities (m/s), & Heat Fluxes (J/s/m2)"                                                                                                                                                                                                                                                                                                                                                                                                                                                                                                                                                                                                                                                                                                         
Variables= "X(m)"     "Y(m)"      "Z(m)"     "FluxLiq"   "FluxLiq_X"   "FluxLiq_Y"   "FluxLiq_Z"   "PorVelLiq"  "PorVelLiqX"  "PorVelLiqY"  "PorVelLiqZ"     "FluxGas"   "FluxGas_X"   "FluxGas_Y"   "FluxGas_Z"   "PorVelGas"  "PorVelGasX"  "PorVelGasY"  "PorVelGasZ"    "HeatFlux"  "HeatFlux_X"  "HeatFlux_Y"  "HeatFlux_Z"                                                                                                                                                                                                                                                                                                                                                                                                                                                                                                
Zone T= "1.00000000E+09 sec" I=     9 J=    10 K=    23 F=Point
  1.250000E+02  1.250000E+02 -5.425000E+03  7.857637E-09 -6.726409E-10  8.125142E-10 -7.786516E-09  4.412059E-11 -3.795606E-12  4.585298E-12 -4.371722E-11  0.000000E+00  0.000000E+00  0.000000E+00  0.000000E+00  0.000000E+00  0.000000E+00  0.000000E+00  0.000000E+00  1.058558E-01  5.360929E-04 -3.270896E-04  1.058539E-01                                                                                                                                                                                                                                                                                                                                                                                                                                                                                              
  3.750000E+02  1.250000E+02 -5.425000E+03  8.245957E-09 -1.530760E-09  7.871262E-10 -8.064305E-09  4.630182E-11 -8.637449E-12  4.441597E-12 -4.527169E-11  0.000000E+00  0.000000E+00  0.000000E+00  0.000000E+00  0.000000E+00  0.000000E+00  0.000000E+00  0.000000E+00  1.062586E-01  1.014486E-03 -3.038603E-04  1.062534E-01                                                                                                                                                                                                                                                                                                                                                                                                                                                                                              
  6.250000E+02  1.250000E+02 -5.425000E+03  8.504518E-09 -1.380466E-09  7.491601E-10 -8.358224E-09  4.774642E-11 -7.789039E-12  4.226980E-12 -4.691677E-11  0.000000E+00  0.000000E+00  0.000000E+00  0.000000E+00  0.000000E+00  0.000000E+00  0.000000E+00  0.000000E+00  1.067855E-01  1.474621E-04 -2.673540E-04  1.067851E-01                                                                                                                                                                                                                                                                                                                                                                                                                                                                                              
  8.750000E+02  1.250000E+02 -5.425000E+03  8.570877E-09 -4.579063E-10  7.198171E-10 -8.528313E-09  4.811316E-11 -2.583588E-12  4.061539E-12 -4.787175E-11  0.000000E+00  0.000000E+00  0.000000E+00  0.000000E+00  0.000000E+00  0.000000E+00  0.000000E+00  0.000000E+00  1.077133E-01 -2.221305E-03 -2.379115E-04  1.076901E-01                                                                                                                                                                                                                                                                                                                                                                                                                                                                                              
  1.050000E+03  1.250000E+02 -5.425000E+03  8.518922E-09 -9.820384E-11  7.165616E-10 -8.488164E-09  4.782599E-11 -5.541260E-13  4.043836E-12 -4.765150E-11  0.000000E+00  0.000000E+00  0.000000E+00  0.000000E+00  0.000000E+00  0.000000E+00  0.000000E+00  0.000000E+00  1.093101E-01 -8.689914E-05 -2.336689E-04  1.093099E-01                                                                                                                                                                                                                                                                                                                                                                                                                                                                                              
  1.225000E+03  1.250000E+02 -5.425000E+03  8.568163E-09  2.711480E-10  7.198250E-10 -8.533566E-09  4.809745E-11  1.529817E-12  4.061583E-12 -4.790124E-11  0.000000E+00  0.000000E+00  0.000000E+00  0.000000E+00  0.000000E+00  0.000000E+00  0.000000E+00  0.000000E+00  1.077055E-01  2.056012E-03 -2.379205E-04  1.076857E-01                                                                                                                                                                                                                                                                                                                                                                                                                                                                                              
  1.475000E+03  1.250000E+02 -5.425000E+03  8.492440E-09  1.225718E-09  7.491843E-10 -8.370058E-09  4.767724E-11  6.915904E-12  4.227116E-12 -4.698320E-11  0.000000E+00  0.000000E+00  0.000000E+00  0.000000E+00  0.000000E+00  0.000000E+00  0.000000E+00  0.000000E+00  1.067758E-01 -2.844519E-04 -2.673227E-04  1.067751E-01                                                                                                                                                                                                                                                                                                                                                                                                                                                                                              
  1.725000E+03  1.250000E+02 -5.425000E+03  8.243968E-09  1.429326E-09  7.871599E-10 -8.080867E-09  4.628960E-11  8.065100E-12  4.441786E-12 -4.536465E-11  0.000000E+00  0.000000E+00  0.000000E+00  0.000000E+00  0.000000E+00  0.000000E+00  0.000000E+00  0.000000E+00  1.062455E-01 -1.104275E-03 -3.038188E-04  1.062394E-01                                                                                                                                                                                                                                                                                                                                                                                                                                                                                              
  1.975000E+03  1.250000E+02 -5.425000E+03  7.873498E-09  6.374002E-10  8.125730E-10 -7.805474E-09  4.420946E-11  3.596748E-12  4.585629E-12 -4.382364E-11  0.000000E+00  0.000000E+00  0.000000E+00  0.000000E+00  0.000000E+00  0.000000E+00  0.000000E+00  0.000000E+00  1.058399E-01 -5.672865E-04 -3.270552E-04  1.058378E-01                                                                                                                                                                                                                                                                                                                                                                                                                                                                                              
  1.250000E+02  1.250000E+02 -5.225000E+03  2.122275E-08 -5.625139E-10  6.111428E-10 -2.120649E-08  1.180569E-10 -3.144516E-12  3.416765E-12 -1.179655E-10  0.000000E+00  0.000000E+00  0.000000E+00  0.000000E+00  0.000000E+00  0.000000E+00  0.000000E+00  0.000000E+00  3.000669E-01  1.159038E-03 -7.505498E-04  3.000637E-01                                                                                                                                                                                                                                                                                                                                                                                                                                                                                              
  3.750000E+02  1.250000E+02 -5.225000E+03  2.218892E-08 -1.281512E-09  5.907619E-10 -2.214400E-08  1.234053E-10 -7.163299E-12  3.302350E-12 -1.231529E-10  0.000000E+00  0.000000E+00  0.000000E+00  0.000000E+00  0.000000E+00  0.000000E+00  0.000000E+00  0.000000E+00  3.019161E-01  2.408134E-03 -7.048205E-04  3.019056E-01                                                                                                                                                                                                                                                                                                                                                                                                                                                                                              
  6.250000E+02  1.250000E+02 -5.225000E+03  2.309616E-08 -1.240297E-09  5.613213E-10 -2.305600E-08  1.284256E-10 -6.932293E-12  3.137337E-12 -1.282000E-10  0.000000E+00  0.000000E+00  0.000000E+00  0.000000E+00  0.000000E+00  0.000000E+00  0.000000E+00  0.000000E+00  3.037956E-01  1.776201E-03 -6.354366E-04  3.037898E-01                                                                                                                                                                                                                                                                                                                                                                                                                                                                                              
  8.750000E+02  1.250000E+02 -5.225000E+03  2.358308E-08 -6.546529E-10  5.397738E-10 -2.356781E-08  1.311237E-10 -3.658801E-12  3.016774E-12 -1.310380E-10  0.000000E+00  0.000000E+00  0.000000E+00  0.000000E+00  0.000000E+00  0.000000E+00  0.000000E+00  0.000000E+00  3.057102E-01  2.798583E-04 -5.832179E-04  3.057095E-01                                                                                                                                                                                                                                                                                                                                                                                                                                                                                              
  1.050000E+03  1.250000E+02 -5.225000E+03  2.355668E-08 -1.010128E-10  5.374023E-10 -2.355034E-08  1.309808E-10 -5.645436E-13  3.003632E-12 -1.309451E-10  0.000000E+00  0.000000E+00  0.000000E+00  0.000000E+00  0.000000E+00  0.000000E+00  0.000000E+00  0.000000E+00  3.076718E-01 -8.533839E-05 -5.775811E-04  3.076712E-01                                                                                                                                                                                                                                                                                                                                                                                                                                                                                              
  1.225000E+03  1.250000E+02 -5.225000E+03  2.359409E-08  4.627131E-10  5.397841E-10 -2.358338E-08  1.311847E-10  2.586071E-12  3.016832E-12 -1.311245E-10  0.000000E+00  0.000000E+00  0.000000E+00  0.000000E+00  0.000000E+00  0.000000E+00  0.000000E+00  0.000000E+00  3.056982E-01 -4.420249E-04 -5.832285E-04  3.056973E-01                                                                                                                                                                                                                                                                                                                                                                                                                                                                                              
  1.475000E+03  1.250000E+02 -5.225000E+03  2.312303E-08  1.081541E-09  5.613512E-10 -2.309090E-08  1.285745E-10  6.044983E-12  3.137504E-12 -1.283940E-10  0.000000E+00  0.000000E+00  0.000000E+00  0.000000E+00  0.000000E+00  0.000000E+00  0.000000E+00  0.000000E+00  3.037690E-01 -1.910383E-03 -6.354183E-04  3.037623E-01                                                                                                                                                                                                                                                                                                                                                                                                                                                                                              
  1.725000E+03  1.250000E+02 -5.225000E+03  2.223169E-08  1.177667E-09  5.908186E-10 -2.219261E-08  1.236427E-10  6.582841E-12  3.302666E-12 -1.234232E-10  0.000000E+00  0.000000E+00  0.000000E+00  0.000000E+00  0.000000E+00  0.000000E+00  0.000000E+00  0.000000E+00  3.018785E-01 -2.495965E-03 -7.047629E-04  3.018674E-01                                                                                                                                                                                                                                                                                                                                                                                                                                                                                              
  1.975000E+03  1.250000E+02 -5.225000E+03  2.127718E-08  5.264982E-10  6.112271E-10 -2.126188E-08  1.183595E-10  2.943183E-12  3.417235E-12 -1.182735E-10  0.000000E+00  0.000000E+00  0.000000E+00  0.000000E+00  0.000000E+00  0.000000E+00  0.000000E+00  0.000000E+00  3.000233E-01 -1.189515E-03 -7.504759E-04  3.000200E-01                                                                                                                                                                                                                                                                                                                                                                                                                                                                                              
  1.250000E+02  1.250000E+02 -4.975000E+03  3.051625E-08 -5.631908E-10  4.177793E-10 -3.050819E-08  1.667824E-10 -3.085461E-12  2.289341E-12 -1.667381E-10  0.000000E+00  0.000000E+00  0.000000E+00  0.000000E+00  0.000000E+00  0.000000E+00  0.000000E+00  0.000000E+00  4.570063E-01  3.130342E-03 -1.663725E-03  4.569925E-01                                                                                                                                                                                                                                                                                                                                                                                                                                                                                              
  3.750000E+02  1.250000E+02 -4.975000E+03  3.228932E-08 -1.191432E-09  3.973879E-10 -3.226488E-08  1.763960E-10 -6.526334E-12  2.176923E-12 -1.762618E-10  0.000000E+00  0.000000E+00  0.000000E+00  0.000000E+00  0.000000E+00  0.000000E+00  0.000000E+00  0.000000E+00  4.624791E-01  6.310072E-03 -1.545651E-03  4.624335E-01                                                                                                                                                                                                                                                                                                                                                                                                                                                                                              
  6.250000E+02  1.250000E+02 -4.975000E+03  3.370175E-08 -1.075917E-09  3.721657E-10 -3.368251E-08  1.840569E-10 -5.892280E-12  2.038151E-12 -1.839513E-10  0.000000E+00  0.000000E+00  0.000000E+00  0.000000E+00  0.000000E+00  0.000000E+00  0.000000E+00  0.000000E+00  4.660243E-01  5.068162E-03 -1.383004E-03  4.659947E-01                                                                                                                                                                                                                                                                                                                                                                                                                                                                                              
  8.750000E+02  1.250000E+02 -4.975000E+03  3.446828E-08 -5.792514E-10  3.586999E-10 -3.446154E-08  1.882149E-10 -3.171831E-12  1.964123E-12 -1.881779E-10  0.000000E+00  0.000000E+00  0.000000E+00  0.000000E+00  0.000000E+00  0.000000E+00  0.000000E+00  0.000000E+00  4.680952E-01  2.165047E-03 -1.283198E-03  4.680884E-01                                                                                                                                                                                                                                                                                                                                                                                                                                                                                              
  1.050000E+03  1.250000E+02 -4.975000E+03  3.456932E-08 -1.072776E-10  3.589150E-10 -3.456729E-08  1.887654E-10 -5.873844E-13  1.965314E-12 -1.887542E-10  0.000000E+00  0.000000E+00  0.000000E+00  0.000000E+00  0.000000E+00  0.000000E+00  0.000000E+00  0.000000E+00  4.687155E-01 -8.097328E-05 -1.281951E-03  4.687137E-01                                                                                                                                                                                                                                                                                                                                                                                                                                                                                              
  1.225000E+03  1.250000E+02 -4.975000E+03  3.447721E-08  3.759355E-10  3.587225E-10 -3.447329E-08  1.882642E-10  2.058556E-12  1.964247E-12 -1.882427E-10  0.000000E+00  0.000000E+00  0.000000E+00  0.000000E+00  0.000000E+00  0.000000E+00  0.000000E+00  0.000000E+00  4.680872E-01 -2.318533E-03 -1.283181E-03  4.680797E-01                                                                                                                                                                                                                                                                                                                                                                                                                                                                                              
  1.475000E+03  1.250000E+02 -4.975000E+03  3.372242E-08  9.087820E-10  3.722179E-10 -3.370812E-08  1.841711E-10  4.976991E-12  2.038437E-12 -1.840926E-10  0.000000E+00  0.000000E+00  0.000000E+00  0.000000E+00  0.000000E+00  0.000000E+00  0.000000E+00  0.000000E+00  4.660066E-01 -5.194414E-03 -1.382969E-03  4.659756E-01                                                                                                                                                                                                                                                                                                                                                                                                                                                                                              
  1.725000E+03  1.250000E+02 -4.975000E+03  3.231989E-08  1.082963E-09  3.974917E-10 -3.229930E-08  1.765650E-10  5.932190E-12  2.177491E-12 -1.764519E-10  0.000000E+00  0.000000E+00  0.000000E+00  0.000000E+00  0.000000E+00  0.000000E+00  0.000000E+00  0.000000E+00  4.624544E-01 -6.392121E-03 -1.545576E-03  4.624077E-01                                                                                                                                                                                                                                                                                                                                                                                                                                                                                              
  1.975000E+03  1.250000E+02 -4.975000E+03  3.055334E-08  5.258186E-10  4.179133E-10 -3.054596E-08  1.669874E-10  2.880715E-12  2.290075E-12 -1.669469E-10  0.000000E+00  0.000000E+00  0.000000E+00  0.000000E+00  0.000000E+00  0.000000E+00  0.000000E+00  0.000000E+00  4.569780E-01 -3.158651E-03 -1.663624E-03  4.569640E-01                                                                                                                                                                                                                                                                                                                                                                                                                                                                                              
  1.250000E+02  1.250000E+02 -4.725000E+03  3.553663E-08 -5.372821E-10  2.316131E-10 -3.553181E-08  1.903297E-10 -2.872797E-12  1.238947E-12 -1.903040E-10  0.000000E+00  0.000000E+00  0.000000E+00  0.000000E+00  0.000000E+00  0.000000E+00  0.000000E+00  0.000000E+00  5.611660E-01  7.854404E-03 -2.932060E-03  5.611034E-01                                                                                                                                                                                                                                                                                                                                                                                                                                                                                              
  3.750000E+02  1.250000E+02 -4.725000E+03  3.765123E-08 -9.873725E-10  2.124889E-10 -3.763768E-08  2.015475E-10 -5.278079E-12  1.135891E-12 -2.014752E-10  0.000000E+00  0.000000E+00  0.000000E+00  0.000000E+00  0.000000E+00  0.000000E+00  0.000000E+00  0.000000E+00  5.683285E-01  1.389213E-02 -2.600658E-03  5.681527E-01                                                                                                                                                                                                                                                                                                                                                                                                                                                                                              
  6.250000E+02  1.250000E+02 -4.725000E+03  3.895280E-08 -7.592955E-10  1.980519E-10 -3.894490E-08  2.084570E-10 -4.057069E-12  1.058210E-12 -2.084149E-10  0.000000E+00  0.000000E+00  0.000000E+00  0.000000E+00  0.000000E+00  0.000000E+00  0.000000E+00  0.000000E+00  5.689231E-01  9.396226E-03 -2.260433E-03  5.688410E-01                                                                                                                                                                                                                                                                                                                                                                                                                                                                                              
  8.750000E+02  1.250000E+02 -4.725000E+03  3.973813E-08 -4.370341E-10  2.030043E-10 -3.973520E-08  2.126150E-10 -2.334558E-12  1.084399E-12 -2.125994E-10  0.000000E+00  0.000000E+00  0.000000E+00  0.000000E+00  0.000000E+00  0.000000E+00  0.000000E+00  0.000000E+00  5.700791E-01  4.126505E-03 -2.160579E-03  5.700601E-01                                                                                                                                                                                                                                                                                                                                                                                                                                                                                              
  1.050000E+03  1.250000E+02 -4.725000E+03  4.011482E-08 -9.421232E-11  2.137801E-10 -4.011414E-08  2.145910E-10 -5.032152E-13  1.141949E-12 -2.145873E-10  0.000000E+00  0.000000E+00  0.000000E+00  0.000000E+00  0.000000E+00  0.000000E+00  0.000000E+00  0.000000E+00  5.726940E-01 -5.981687E-05 -2.253158E-03  5.726896E-01                                                                                                                                                                                                                                                                                                                                                                                                                                                                                              
  1.225000E+03  1.250000E+02 -4.725000E+03  3.962519E-08  2.592123E-10  2.030347E-10 -3.962382E-08  2.120169E-10  1.384698E-12  1.084561E-12 -2.120096E-10  0.000000E+00  0.000000E+00  0.000000E+00  0.000000E+00  0.000000E+00  0.000000E+00  0.000000E+00  0.000000E+00  5.701403E-01 -4.239432E-03 -2.160559E-03  5.701205E-01                                                                                                                                                                                                                                                                                                                                                                                                                                                                                              
  1.475000E+03  1.250000E+02 -4.725000E+03  3.869626E-08  6.147282E-10  1.981259E-10 -3.869087E-08  2.070981E-10  3.284665E-12  1.058605E-12 -2.070693E-10  0.000000E+00  0.000000E+00  0.000000E+00  0.000000E+00  0.000000E+00  0.000000E+00  0.000000E+00  0.000000E+00  5.690629E-01 -9.488147E-03 -2.260388E-03  5.689793E-01                                                                                                                                                                                                                                                                                                                                                                                                                                                                                              
  1.725000E+03  1.250000E+02 -4.725000E+03  3.728901E-08  8.952783E-10  2.126137E-10 -3.727765E-08  1.996279E-10  4.785836E-12  1.136558E-12 -1.995672E-10  0.000000E+00  0.000000E+00  0.000000E+00  0.000000E+00  0.000000E+00  0.000000E+00  0.000000E+00  0.000000E+00  5.685267E-01 -1.395084E-02 -2.600576E-03  5.683495E-01                                                                                                                                                                                                                                                                                                                                                                                                                                                                                              