Title="TOUGHREACT V3.30-OMP flowvector.tec: Liq & Gas Fluxes (kg/s/m^2), Pore Velocities (m/s), & Heat Fluxes (J/s/m2)"                                                                                                                                                                                                                                                                                                                                                                                                                                                                                                                                                                                                                                                                                                         
Variables= "X(m)"     "Y(m)"      "Z(m)"     "FluxLiq"   "FluxLiq_X"   "FluxLiq_Y"   "FluxLiq_Z"   "PorVelLiq"  "PorVelLiqX"  "PorVelLiqY"  "PorVelLiqZ"     "FluxGas"   "FluxGas_X"   "FluxGas_Y"   "FluxGas_Z"   "PorVelGas"  "PorVelGasX"  "PorVelGasY"  "PorVelGasZ"    "HeatFlux"  "HeatFlux_X"  "HeatFlux_Y"  "HeatFlux_Z"                                                                                                                                                                                                                                                                                                                                                                                                                                                                                                
Zone T= "5.00000000E-02 sec" I=     9 J=    10 K=    23 F=Point
  1.250000E+02  1.250000E+02 -5.425000E+03  3.936052E-09 -6.852690E-10  8.206759E-10 -3.788061E-09  2.211625E-11 -3.868908E-12  4.633940E-12 -2.127643E-11  0.000000E+00  0.000000E+00  0.000000E+00  0.000000E+00  0.000000E+00  0.000000E+00  0.000000E+00  0.000000E+00  1.130573E-01  5.192246E-04 -3.091508E-04  1.130557E-01                                                                                                                                                                                                                                                                                                                                                                                                                                                                                              
  3.750000E+02  1.250000E+02 -5.425000E+03  4.431231E-09 -1.567843E-09  7.947160E-10 -4.067690E-09  2.490598E-11 -8.851124E-12  4.486793E-12 -2.284369E-11  0.000000E+00  0.000000E+00  0.000000E+00  0.000000E+00  0.000000E+00  0.000000E+00  0.000000E+00  0.000000E+00  1.134579E-01  9.666239E-04 -2.866450E-04  1.134534E-01                                                                                                                                                                                                                                                                                                                                                                                                                                                                                              
  6.250000E+02  1.250000E+02 -5.425000E+03  4.652384E-09 -1.456026E-09  7.558513E-10 -4.353545E-09  2.614038E-11 -8.219161E-12  4.266780E-12 -2.444503E-11  0.000000E+00  0.000000E+00  0.000000E+00  0.000000E+00  0.000000E+00  0.000000E+00  0.000000E+00  0.000000E+00  1.139921E-01  5.144078E-05 -2.512541E-04  1.139918E-01                                                                                                                                                                                                                                                                                                                                                                                                                                                                                              
  8.750000E+02  1.250000E+02 -5.425000E+03  4.577576E-09 -6.099160E-10  7.257831E-10 -4.478331E-09  2.570745E-11 -3.442793E-12  4.096975E-12 -2.514428E-11  0.000000E+00  0.000000E+00  0.000000E+00  0.000000E+00  0.000000E+00  0.000000E+00  0.000000E+00  0.000000E+00  1.149922E-01 -3.126519E-03 -2.226833E-04  1.149495E-01                                                                                                                                                                                                                                                                                                                                                                                                                                                                                              
  1.050000E+03  1.250000E+02 -5.425000E+03  4.327913E-09 -5.678706E-15  7.226193E-10 -4.267160E-09  2.430610E-11 -3.205753E-17  4.079941E-12 -2.396124E-11  0.000000E+00  0.000000E+00  0.000000E+00  0.000000E+00  0.000000E+00  0.000000E+00  0.000000E+00  0.000000E+00  1.173576E-01  1.531311E-08 -2.182302E-04  1.173574E-01                                                                                                                                                                                                                                                                                                                                                                                                                                                                                              
  1.225000E+03  1.250000E+02 -5.425000E+03  4.577570E-09  6.099471E-10  7.257763E-10 -4.478321E-09  2.570741E-11  3.442968E-12  4.096937E-12 -2.514422E-11  0.000000E+00  0.000000E+00  0.000000E+00  0.000000E+00  0.000000E+00  0.000000E+00  0.000000E+00  0.000000E+00  1.149922E-01  3.126561E-03 -2.227064E-04  1.149495E-01                                                                                                                                                                                                                                                                                                                                                                                                                                                                                              
  1.475000E+03  1.250000E+02 -5.425000E+03  4.652413E-09  1.456057E-09  7.558307E-10 -4.353570E-09  2.614055E-11  8.219336E-12  4.266663E-12 -2.444517E-11  0.000000E+00  0.000000E+00  0.000000E+00  0.000000E+00  0.000000E+00  0.000000E+00  0.000000E+00  0.000000E+00  1.139921E-01 -5.142669E-05 -2.512718E-04  1.139918E-01                                                                                                                                                                                                                                                                                                                                                                                                                                                                                              
  1.725000E+03  1.250000E+02 -5.425000E+03  4.431237E-09  1.567855E-09  7.946891E-10 -4.067697E-09  2.490601E-11  8.851192E-12  4.486641E-12 -2.284373E-11  0.000000E+00  0.000000E+00  0.000000E+00  0.000000E+00  0.000000E+00  0.000000E+00  0.000000E+00  0.000000E+00  1.134579E-01 -9.666107E-04 -2.866779E-04  1.134534E-01                                                                                                                                                                                                                                                                                                                                                                                                                                                                                              
  1.975000E+03  1.250000E+02 -5.425000E+03  3.936058E-09  6.852867E-10  8.206647E-10 -3.788066E-09  2.211628E-11  3.869009E-12  4.633877E-12 -2.127646E-11  0.000000E+00  0.000000E+00  0.000000E+00  0.000000E+00  0.000000E+00  0.000000E+00  0.000000E+00  0.000000E+00  1.130573E-01 -5.191983E-04 -3.091748E-04  1.130557E-01                                                                                                                                                                                                                                                                                                                                                                                                                                                                                              
  1.250000E+02  1.250000E+02 -5.225000E+03  1.328381E-08 -5.726682E-10  6.196921E-10 -1.325698E-08  7.382581E-11 -3.201895E-12  3.465338E-12 -7.367489E-11  0.000000E+00  0.000000E+00  0.000000E+00  0.000000E+00  0.000000E+00  0.000000E+00  0.000000E+00  0.000000E+00  3.108503E-01  1.148177E-03 -7.355990E-04  3.108473E-01                                                                                                                                                                                                                                                                                                                                                                                                                                                                                              
  3.750000E+02  1.250000E+02 -5.225000E+03  1.427779E-08 -1.304934E-09  5.986000E-10 -1.420542E-08  7.933603E-11 -7.295385E-12  3.346808E-12 -7.892897E-11  0.000000E+00  0.000000E+00  0.000000E+00  0.000000E+00  0.000000E+00  0.000000E+00  0.000000E+00  0.000000E+00  3.126952E-01  2.380703E-03 -6.905555E-04  3.126854E-01                                                                                                                                                                                                                                                                                                                                                                                                                                                                                              
  6.250000E+02  1.250000E+02 -5.225000E+03  1.516931E-08 -1.266087E-09  5.680780E-10 -1.510570E-08  8.427130E-11 -7.077196E-12  3.175526E-12 -8.391353E-11  0.000000E+00  0.000000E+00  0.000000E+00  0.000000E+00  0.000000E+00  0.000000E+00  0.000000E+00  0.000000E+00  3.145892E-01  1.743023E-03 -6.222023E-04  3.145837E-01                                                                                                                                                                                                                                                                                                                                                                                                                                                                                              
  8.750000E+02  1.250000E+02 -5.225000E+03  1.557162E-08 -6.577631E-10  5.457186E-10 -1.554814E-08  8.649222E-11 -3.676430E-12  3.050218E-12 -8.636020E-11  0.000000E+00  0.000000E+00  0.000000E+00  0.000000E+00  0.000000E+00  0.000000E+00  0.000000E+00  0.000000E+00  3.165786E-01  2.554771E-04 -5.707575E-04  3.165780E-01                                                                                                                                                                                                                                                                                                                                                                                                                                                                                              
  1.050000E+03  1.250000E+02 -5.225000E+03  1.534391E-08  9.799703E-15  5.432898E-10 -1.533429E-08  8.521603E-11  5.477099E-17  3.036674E-12 -8.516191E-11  0.000000E+00  0.000000E+00  0.000000E+00  0.000000E+00  0.000000E+00  0.000000E+00  0.000000E+00  0.000000E+00  3.193580E-01  2.186023E-08 -5.651912E-04  3.193575E-01                                                                                                                                                                                                                                                                                                                                                                                                                                                                                              
  1.225000E+03  1.250000E+02 -5.225000E+03  1.557162E-08  6.577803E-10  5.457012E-10 -1.554814E-08  8.649222E-11  3.676526E-12  3.050121E-12 -8.636020E-11  0.000000E+00  0.000000E+00  0.000000E+00  0.000000E+00  0.000000E+00  0.000000E+00  0.000000E+00  0.000000E+00  3.165786E-01 -2.554462E-04 -5.707906E-04  3.165780E-01                                                                                                                                                                                                                                                                                                                                                                                                                                                                                              
  1.475000E+03  1.250000E+02 -5.225000E+03  1.516935E-08  1.266100E-09  5.680757E-10 -1.510574E-08  8.427150E-11  7.077273E-12  3.175513E-12 -8.391373E-11  0.000000E+00  0.000000E+00  0.000000E+00  0.000000E+00  0.000000E+00  0.000000E+00  0.000000E+00  0.000000E+00  3.145892E-01 -1.743023E-03 -6.222070E-04  3.145837E-01                                                                                                                                                                                                                                                                                                                                                                                                                                                                                              
  1.725000E+03  1.250000E+02 -5.225000E+03  1.427781E-08  1.304960E-09  5.985991E-10 -1.420544E-08  7.933616E-11  7.295530E-12  3.346803E-12 -7.892908E-11  0.000000E+00  0.000000E+00  0.000000E+00  0.000000E+00  0.000000E+00  0.000000E+00  0.000000E+00  0.000000E+00  3.126952E-01 -2.380696E-03 -6.905420E-04  3.126854E-01                                                                                                                                                                                                                                                                                                                                                                                                                                                                                              
  1.975000E+03  1.250000E+02 -5.225000E+03  1.328383E-08  5.726878E-10  6.196792E-10 -1.325701E-08  7.382593E-11  3.202005E-12  3.465266E-12 -7.367501E-11  0.000000E+00  0.000000E+00  0.000000E+00  0.000000E+00  0.000000E+00  0.000000E+00  0.000000E+00  0.000000E+00  3.108503E-01 -1.148161E-03 -7.356040E-04  3.108473E-01                                                                                                                                                                                                                                                                                                                                                                                                                                                                                              
  1.250000E+02  1.250000E+02 -4.975000E+03  2.280341E-08 -5.710810E-10  4.263743E-10 -2.279227E-08  1.245793E-10 -3.129052E-12  2.336791E-12 -1.245181E-10  0.000000E+00  0.000000E+00  0.000000E+00  0.000000E+00  0.000000E+00  0.000000E+00  0.000000E+00  0.000000E+00  4.638307E-01  3.133383E-03 -1.655868E-03  4.638172E-01                                                                                                                                                                                                                                                                                                                                                                                                                                                                                              
  3.750000E+02  1.250000E+02 -4.975000E+03  2.463283E-08 -1.196435E-09  4.048162E-10 -2.460042E-08  1.345100E-10 -6.554300E-12  2.217873E-12 -1.343319E-10  0.000000E+00  0.000000E+00  0.000000E+00  0.000000E+00  0.000000E+00  0.000000E+00  0.000000E+00  0.000000E+00  4.694582E-01  6.321688E-03 -1.538685E-03  4.694131E-01                                                                                                                                                                                                                                                                                                                                                                                                                                                                                              
  6.250000E+02  1.250000E+02 -4.975000E+03  2.605823E-08 -1.052508E-09  3.778310E-10 -2.603422E-08  1.422436E-10 -5.764237E-12  2.069290E-12 -1.421117E-10  0.000000E+00  0.000000E+00  0.000000E+00  0.000000E+00  0.000000E+00  0.000000E+00  0.000000E+00  0.000000E+00  4.731563E-01  5.094029E-03 -1.377133E-03  4.731268E-01                                                                                                                                                                                                                                                                                                                                                                                                                                                                                              
  8.750000E+02  1.250000E+02 -4.975000E+03  2.679551E-08 -5.129495E-10  3.632864E-10 -2.678813E-08  1.462371E-10 -2.808728E-12  1.989201E-12 -1.461966E-10  0.000000E+00  0.000000E+00  0.000000E+00  0.000000E+00  0.000000E+00  0.000000E+00  0.000000E+00  0.000000E+00  4.753448E-01  2.216895E-03 -1.278126E-03  4.753379E-01                                                                                                                                                                                                                                                                                                                                                                                                                                                                                              
  1.050000E+03  1.250000E+02 -4.975000E+03  2.687204E-08 -4.280625E-15  3.636622E-10 -2.686958E-08  1.466464E-10 -2.343695E-17  1.991209E-12 -1.466329E-10  0.000000E+00  0.000000E+00  0.000000E+00  0.000000E+00  0.000000E+00  0.000000E+00  0.000000E+00  0.000000E+00  4.760343E-01  4.942758E-09 -1.277184E-03  4.760326E-01                                                                                                                                                                                                                                                                                                                                                                                                                                                                                              
  1.225000E+03  1.250000E+02 -4.975000E+03  2.679551E-08  5.129513E-10  3.632824E-10 -2.678814E-08  1.462372E-10  2.808738E-12  1.989179E-12 -1.461967E-10  0.000000E+00  0.000000E+00  0.000000E+00  0.000000E+00  0.000000E+00  0.000000E+00  0.000000E+00  0.000000E+00  4.753448E-01 -2.216889E-03 -1.278129E-03  4.753379E-01                                                                                                                                                                                                                                                                                                                                                                                                                                                                                              
  1.475000E+03  1.250000E+02 -4.975000E+03  2.605824E-08  1.052516E-09  3.778454E-10 -2.603423E-08  1.422437E-10  5.764282E-12  2.069369E-12 -1.421118E-10  0.000000E+00  0.000000E+00  0.000000E+00  0.000000E+00  0.000000E+00  0.000000E+00  0.000000E+00  0.000000E+00  4.731563E-01 -5.094020E-03 -1.377122E-03  4.731268E-01                                                                                                                                                                                                                                                                                                                                                                                                                                                                                              
  1.725000E+03  1.250000E+02 -4.975000E+03  2.463284E-08  1.196451E-09  4.048314E-10 -2.460044E-08  1.345101E-10  6.554390E-12  2.217956E-12 -1.343320E-10  0.000000E+00  0.000000E+00  0.000000E+00  0.000000E+00  0.000000E+00  0.000000E+00  0.000000E+00  0.000000E+00  4.694582E-01 -6.321669E-03 -1.538677E-03  4.694131E-01                                                                                                                                                                                                                                                                                                                                                                                                                                                                                              
  1.975000E+03  1.250000E+02 -4.975000E+03  2.280344E-08  5.710953E-10  4.263705E-10 -2.279230E-08  1.245795E-10  3.129131E-12  2.336770E-12 -1.245182E-10  0.000000E+00  0.000000E+00  0.000000E+00  0.000000E+00  0.000000E+00  0.000000E+00  0.000000E+00  0.000000E+00  4.638307E-01 -3.133372E-03 -1.655866E-03  4.638172E-01                                                                                                                                                                                                                                                                                                                                                                                                                                                                                              
  1.250000E+02  1.250000E+02 -4.725000E+03  2.780554E-08 -5.449811E-10  2.366038E-10 -2.779919E-08  1.489309E-10 -2.913992E-12  1.265711E-12 -1.488970E-10  0.000000E+00  0.000000E+00  0.000000E+00  0.000000E+00  0.000000E+00  0.000000E+00  0.000000E+00  0.000000E+00  5.650002E-01  8.055307E-03 -2.978560E-03  5.649349E-01                                                                                                                                                                                                                                                                                                                                                                                                                                                                                              
  3.750000E+02  1.250000E+02 -4.725000E+03  3.066962E-08 -9.774132E-10  2.155632E-10 -3.065329E-08  1.641194E-10 -5.224750E-12  1.152330E-12 -1.640322E-10  0.000000E+00  0.000000E+00  0.000000E+00  0.000000E+00  0.000000E+00  0.000000E+00  0.000000E+00  0.000000E+00  5.821654E-01  1.427770E-02 -2.669740E-03  5.819842E-01                                                                                                                                                                                                                                                                                                                                                                                                                                                                                              
  6.250000E+02  1.250000E+02 -4.725000E+03  3.229121E-08 -7.015772E-10  1.985864E-10 -3.228298E-08  1.727142E-10 -3.748357E-12  1.060988E-12 -1.726702E-10  0.000000E+00  0.000000E+00  0.000000E+00  0.000000E+00  0.000000E+00  0.000000E+00  0.000000E+00  0.000000E+00  5.867645E-01  9.708305E-03 -2.334770E-03  5.866795E-01                                                                                                                                                                                                                                                                                                                                                                                                                                                                                              
  8.750000E+02  1.250000E+02 -4.725000E+03  3.315952E-08 -3.495369E-10  2.027502E-10 -3.315706E-08  1.773108E-10 -1.866923E-12  1.082902E-12 -1.772977E-10  0.000000E+00  0.000000E+00  0.000000E+00  0.000000E+00  0.000000E+00  0.000000E+00  0.000000E+00  0.000000E+00  5.885706E-01  4.342715E-03 -2.245944E-03  5.885503E-01                                                                                                                                                                                                                                                                                                                                                                                                                                                                                              
  1.050000E+03  1.250000E+02 -4.725000E+03  3.334969E-08  2.570770E-15  2.157994E-10 -3.334899E-08  1.783139E-10  1.372887E-17  1.152544E-12 -1.783102E-10  0.000000E+00  0.000000E+00  0.000000E+00  0.000000E+00  0.000000E+00  0.000000E+00  0.000000E+00  0.000000E+00  5.910440E-01  3.930810E-09 -2.368680E-03  5.910392E-01                                                                                                                                                                                                                                                                                                                                                                                                                                                                                              
  1.225000E+03  1.250000E+02 -4.725000E+03  3.315951E-08  3.495412E-10  2.027466E-10 -3.315705E-08  1.773108E-10  1.866946E-12  1.082882E-12 -1.772977E-10  0.000000E+00  0.000000E+00  0.000000E+00  0.000000E+00  0.000000E+00  0.000000E+00  0.000000E+00  0.000000E+00  5.885706E-01 -4.342711E-03 -2.245945E-03  5.885503E-01                                                                                                                                                                                                                                                                                                                                                                                                                                                                                              
  1.475000E+03  1.250000E+02 -4.725000E+03  3.229122E-08  7.015798E-10  1.985867E-10 -3.228299E-08  1.727142E-10  3.748371E-12  1.060990E-12 -1.726703E-10  0.000000E+00  0.000000E+00  0.000000E+00  0.000000E+00  0.000000E+00  0.000000E+00  0.000000E+00  0.000000E+00  5.867645E-01 -9.708307E-03 -2.334772E-03  5.866795E-01                                                                                                                                                                                                                                                                                                                                                                                                                                                                                              
  1.725000E+03  1.250000E+02 -4.725000E+03  3.066963E-08  9.774156E-10  2.155622E-10 -3.065329E-08  1.641195E-10  5.224763E-12  1.152325E-12 -1.640322E-10  0.000000E+00  0.000000E+00  0.000000E+00  0.000000E+00  0.000000E+00  0.000000E+00  0.000000E+00  0.000000E+00  5.821654E-01 -1.427769E-02 -2.669738E-03  5.819842E-01                                                                                                                                                                                                                                                                                                                                                                                                                                                                                              