Title="TOUGHREACT V3.30-OMP flowvector.tec: Liq & Gas Fluxes (kg/s/m^2), Pore Velocities (m/s), & Heat Fluxes (J/s/m2)"                                                                                                                                                                                                                                                                                                                                                                                                                                                                                                                                                                                                                                                                                                         
Variables= "X(m)"     "Y(m)"      "Z(m)"     "FluxLiq"   "FluxLiq_X"   "FluxLiq_Y"   "FluxLiq_Z"   "PorVelLiq"  "PorVelLiqX"  "PorVelLiqY"  "PorVelLiqZ"     "FluxGas"   "FluxGas_X"   "FluxGas_Y"   "FluxGas_Z"   "PorVelGas"  "PorVelGasX"  "PorVelGasY"  "PorVelGasZ"    "HeatFlux"  "HeatFlux_X"  "HeatFlux_Y"  "HeatFlux_Z"                                                                                                                                                                                                                                                                                                                                                                                                                                                                                                
Zone T= "1.00000000E+07 sec" I=     9 J=    10 K=    23 F=Point
  1.250000E+02  1.250000E+02 -5.425000E+03  3.799611E-08 -3.757673E-08  7.615768E-10  5.577984E-09  2.144988E-10 -2.121514E-10  4.300181E-12  3.135288E-11  0.000000E+00  0.000000E+00  0.000000E+00  0.000000E+00  0.000000E+00  0.000000E+00  0.000000E+00  0.000000E+00  1.254066E-01 -3.225019E-02 -3.617368E-04  1.211883E-01                                                                                                                                                                                                                                                                                                                                                                                                                                                                                              
  3.750000E+02  1.250000E+02 -5.425000E+03  9.840573E-08 -9.832883E-08  7.404915E-10  3.818388E-09  5.555372E-10 -5.551068E-10  4.180613E-12  2.145940E-11  0.000000E+00  0.000000E+00  0.000000E+00  0.000000E+00  0.000000E+00  0.000000E+00  0.000000E+00  0.000000E+00  1.472366E-01 -8.495321E-02 -3.348633E-04  1.202558E-01                                                                                                                                                                                                                                                                                                                                                                                                                                                                                              
  6.250000E+02  1.250000E+02 -5.425000E+03  1.149429E-07 -1.149405E-07  7.068387E-10  2.170691E-10  6.488507E-10 -6.488373E-10  3.990091E-12  1.219738E-12  0.000000E+00  0.000000E+00  0.000000E+00  0.000000E+00  0.000000E+00  0.000000E+00  0.000000E+00  0.000000E+00  1.549997E-01 -1.006955E-01 -2.948056E-04  1.178357E-01                                                                                                                                                                                                                                                                                                                                                                                                                                                                                              
  8.750000E+02  1.250000E+02 -5.425000E+03  6.438016E-08 -6.426775E-08  6.804709E-10 -3.741442E-09  3.634110E-10 -3.627830E-10  3.841220E-12 -2.100741E-11  0.000000E+00  0.000000E+00  0.000000E+00  0.000000E+00  0.000000E+00  0.000000E+00  0.000000E+00  0.000000E+00  1.300234E-01 -5.963718E-02 -2.629369E-04  1.155397E-01                                                                                                                                                                                                                                                                                                                                                                                                                                                                                              
  1.050000E+03  1.250000E+02 -5.425000E+03  4.361136E-09  7.731545E-11  6.779203E-10 -4.307430E-09  2.449335E-11  4.364714E-13  3.827652E-12 -2.418848E-11  0.000000E+00  0.000000E+00  0.000000E+00  0.000000E+00  0.000000E+00  0.000000E+00  0.000000E+00  0.000000E+00  1.172831E-01  6.872012E-05 -2.579761E-04  1.172828E-01                                                                                                                                                                                                                                                                                                                                                                                                                                                                                              
  1.225000E+03  1.250000E+02 -5.425000E+03  6.452671E-08  6.441486E-08  6.804203E-10 -3.736150E-09  3.642383E-10  3.636134E-10  3.840934E-12 -2.097769E-11  0.000000E+00  0.000000E+00  0.000000E+00  0.000000E+00  0.000000E+00  0.000000E+00  0.000000E+00  0.000000E+00  1.300873E-01  5.976785E-02 -2.629987E-04  1.155441E-01                                                                                                                                                                                                                                                                                                                                                                                                                                                                                              
  1.475000E+03  1.250000E+02 -5.425000E+03  1.150648E-07  1.150624E-07  7.067154E-10  2.294363E-10  6.495388E-10  6.495253E-10  3.989395E-12  1.289231E-12  0.000000E+00  0.000000E+00  0.000000E+00  0.000000E+00  0.000000E+00  0.000000E+00  0.000000E+00  0.000000E+00  1.550784E-01  1.008037E-01 -2.949142E-04  1.178466E-01                                                                                                                                                                                                                                                                                                                                                                                                                                                                                              
  1.725000E+03  1.250000E+02 -5.425000E+03  9.848611E-08  9.840860E-08  7.403048E-10  3.835764E-09  5.559910E-10  5.555572E-10  4.179559E-12  2.155705E-11  0.000000E+00  0.000000E+00  0.000000E+00  0.000000E+00  0.000000E+00  0.000000E+00  0.000000E+00  0.000000E+00  1.472901E-01  8.502404E-02 -3.350381E-04  1.202713E-01                                                                                                                                                                                                                                                                                                                                                                                                                                                                                              
  1.975000E+03  1.250000E+02 -5.425000E+03  3.802642E-08  3.760442E-08  7.613566E-10  5.597886E-09  2.146698E-10  2.123078E-10  4.298938E-12  3.146475E-11  0.000000E+00  0.000000E+00  0.000000E+00  0.000000E+00  0.000000E+00  0.000000E+00  0.000000E+00  0.000000E+00  1.254300E-01  3.227480E-02 -3.619465E-04  1.212060E-01                                                                                                                                                                                                                                                                                                                                                                                                                                                                                              
  1.250000E+02  1.250000E+02 -5.225000E+03  4.946709E-08 -3.736779E-08  5.801934E-10  3.240840E-08  2.757356E-10 -2.089304E-10  3.244413E-12  1.799102E-10  0.000000E+00  0.000000E+00  0.000000E+00  0.000000E+00  0.000000E+00  0.000000E+00  0.000000E+00  0.000000E+00  3.502217E-01 -3.003335E-02 -7.691535E-04  3.489307E-01                                                                                                                                                                                                                                                                                                                                                                                                                                                                                              
  3.750000E+02  1.250000E+02 -5.225000E+03  1.033162E-07 -9.850663E-08  5.656030E-10  3.115048E-08  5.771836E-10 -5.507142E-10  3.162292E-12  1.727564E-10  0.000000E+00  0.000000E+00  0.000000E+00  0.000000E+00  0.000000E+00  0.000000E+00  0.000000E+00  0.000000E+00  3.593465E-01 -7.994586E-02 -7.185692E-04  3.503399E-01                                                                                                                                                                                                                                                                                                                                                                                                                                                                                              
  6.250000E+02  1.250000E+02 -5.225000E+03  1.198892E-07 -1.165451E-07  5.439319E-10  2.811323E-08  6.698125E-10 -6.514817E-10  3.040571E-12  1.555994E-10  0.000000E+00  0.000000E+00  0.000000E+00  0.000000E+00  0.000000E+00  0.000000E+00  0.000000E+00  0.000000E+00  3.630672E-01 -9.584035E-02 -6.426885E-04  3.501885E-01                                                                                                                                                                                                                                                                                                                                                                                                                                                                                              
  8.750000E+02  1.250000E+02 -5.225000E+03  7.043384E-08 -6.611710E-08  5.288116E-10  2.427292E-08  3.931211E-10 -3.695646E-10  2.955805E-12  1.340055E-10  0.000000E+00  0.000000E+00  0.000000E+00  0.000000E+00  0.000000E+00  0.000000E+00  0.000000E+00  0.000000E+00  3.535777E-01 -5.514181E-02 -5.851020E-04  3.492510E-01                                                                                                                                                                                                                                                                                                                                                                                                                                                                                              
  1.050000E+03  1.250000E+02 -5.225000E+03  2.358358E-08  8.072717E-11  5.277021E-10  2.357753E-08  1.301449E-10  4.512158E-13  2.949700E-12  1.301107E-10  0.000000E+00  0.000000E+00  0.000000E+00  0.000000E+00  0.000000E+00  0.000000E+00  0.000000E+00  0.000000E+00  3.512551E-01  6.833805E-05 -5.784191E-04  3.512547E-01                                                                                                                                                                                                                                                                                                                                                                                                                                                                                              
  1.225000E+03  1.250000E+02 -5.225000E+03  7.058391E-08  6.627053E-08  5.287521E-10  2.429045E-08  3.939606E-10  3.704222E-10  2.955473E-12  1.341029E-10  0.000000E+00  0.000000E+00  0.000000E+00  0.000000E+00  0.000000E+00  0.000000E+00  0.000000E+00  0.000000E+00  3.536126E-01  5.527167E-02 -5.851705E-04  3.492658E-01                                                                                                                                                                                                                                                                                                                                                                                                                                                                                              
  1.475000E+03  1.250000E+02 -5.225000E+03  1.200219E-07  1.166720E-07  5.437956E-10  2.815310E-08  6.705540E-10  6.521911E-10  3.039809E-12  1.558211E-10  0.000000E+00  0.000000E+00  0.000000E+00  0.000000E+00  0.000000E+00  0.000000E+00  0.000000E+00  0.000000E+00  3.631286E-01  9.594774E-02 -6.428069E-04  3.502227E-01                                                                                                                                                                                                                                                                                                                                                                                                                                                                                              
  1.725000E+03  1.250000E+02 -5.225000E+03  1.034120E-07  9.858953E-08  5.653971E-10  3.120610E-08  5.777185E-10  5.511778E-10  3.161141E-12  1.730658E-10  0.000000E+00  0.000000E+00  0.000000E+00  0.000000E+00  0.000000E+00  0.000000E+00  0.000000E+00  0.000000E+00  3.594088E-01  8.001605E-02 -7.187294E-04  3.503878E-01                                                                                                                                                                                                                                                                                                                                                                                                                                                                                              
  1.975000E+03  1.250000E+02 -5.225000E+03  4.953042E-08  3.739650E-08  5.799521E-10  3.247195E-08  2.760880E-10  2.090910E-10  3.243064E-12  1.802638E-10  0.000000E+00  0.000000E+00  0.000000E+00  0.000000E+00  0.000000E+00  0.000000E+00  0.000000E+00  0.000000E+00  3.502783E-01  3.005767E-02 -7.693518E-04  3.489854E-01                                                                                                                                                                                                                                                                                                                                                                                                                                                                                              
  1.250000E+02  1.250000E+02 -4.975000E+03  1.006941E-07 -3.312737E-08  4.439771E-10  9.508771E-08  5.490108E-10 -1.815153E-10  2.433286E-12  5.181304E-10  0.000000E+00  0.000000E+00  0.000000E+00  0.000000E+00  0.000000E+00  0.000000E+00  0.000000E+00  0.000000E+00  5.546248E-01 -2.155967E-02 -1.642509E-03  5.542032E-01                                                                                                                                                                                                                                                                                                                                                                                                                                                                                              
  3.750000E+02  1.250000E+02 -4.975000E+03  1.391628E-07 -8.788408E-08  4.343240E-10  1.079003E-07  7.594217E-10 -4.814491E-10  2.379579E-12  5.873010E-10  0.000000E+00  0.000000E+00  0.000000E+00  0.000000E+00  0.000000E+00  0.000000E+00  0.000000E+00  0.000000E+00  5.736998E-01 -5.934665E-02 -1.516328E-03  5.706199E-01                                                                                                                                                                                                                                                                                                                                                                                                                                                                                              
  6.250000E+02  1.250000E+02 -4.975000E+03  1.674170E-07 -1.049327E-07  4.231812E-10  1.304508E-07  9.127774E-10 -5.747089E-10  2.317750E-12  7.091311E-10  0.000000E+00  0.000000E+00  0.000000E+00  0.000000E+00  0.000000E+00  0.000000E+00  0.000000E+00  0.000000E+00  5.967925E-01 -7.349342E-02 -1.342835E-03  5.922484E-01                                                                                                                                                                                                                                                                                                                                                                                                                                                                                              
  8.750000E+02  1.250000E+02 -4.975000E+03  1.641436E-07 -6.011406E-08  4.247346E-10  1.527392E-07  8.924764E-10 -3.291921E-10  2.325835E-12  8.295428E-10  0.000000E+00  0.000000E+00  0.000000E+00  0.000000E+00  0.000000E+00  0.000000E+00  0.000000E+00  0.000000E+00  6.132044E-01 -4.284172E-02 -1.231700E-03  6.117047E-01                                                                                                                                                                                                                                                                                                                                                                                                                                                                                              
  1.050000E+03  1.250000E+02 -4.975000E+03  1.551340E-07  8.967335E-11  4.294562E-10  1.551334E-07  8.424718E-10  4.910202E-13  2.351693E-12  8.424684E-10  0.000000E+00  0.000000E+00  0.000000E+00  0.000000E+00  0.000000E+00  0.000000E+00  0.000000E+00  0.000000E+00  6.142335E-01  6.779789E-05 -1.227477E-03  6.142323E-01                                                                                                                                                                                                                                                                                                                                                                                                                                                                                              
  1.225000E+03  1.250000E+02 -4.975000E+03  1.642310E-07  6.028406E-08  4.246571E-10  1.527661E-07  8.929567E-10  3.301230E-10  2.325411E-12  8.296898E-10  0.000000E+00  0.000000E+00  0.000000E+00  0.000000E+00  0.000000E+00  0.000000E+00  0.000000E+00  0.000000E+00  6.132347E-01  4.297025E-02 -1.231759E-03  6.117262E-01                                                                                                                                                                                                                                                                                                                                                                                                                                                                                              
  1.475000E+03  1.250000E+02 -4.975000E+03  1.675510E-07  1.050724E-07  4.230163E-10  1.305104E-07  9.135124E-10  5.754738E-10  2.316847E-12  7.094571E-10  0.000000E+00  0.000000E+00  0.000000E+00  0.000000E+00  0.000000E+00  0.000000E+00  0.000000E+00  0.000000E+00  5.968527E-01  7.359906E-02 -1.342959E-03  5.922960E-01                                                                                                                                                                                                                                                                                                                                                                                                                                                                                              
  1.725000E+03  1.250000E+02 -4.975000E+03  1.392838E-07  8.797459E-08  4.340763E-10  1.079826E-07  7.600845E-10  4.819451E-10  2.378222E-12  5.877514E-10  0.000000E+00  0.000000E+00  0.000000E+00  0.000000E+00  0.000000E+00  0.000000E+00  0.000000E+00  0.000000E+00  5.737724E-01  5.941521E-02 -1.516519E-03  5.706858E-01                                                                                                                                                                                                                                                                                                                                                                                                                                                                                              
  1.975000E+03  1.250000E+02 -4.975000E+03  1.007921E-07  3.315856E-08  4.436746E-10  9.518062E-08  5.495472E-10  1.816862E-10  2.431629E-12  5.186389E-10  0.000000E+00  0.000000E+00  0.000000E+00  0.000000E+00  0.000000E+00  0.000000E+00  0.000000E+00  0.000000E+00  5.547001E-01  2.158332E-02 -1.642735E-03  5.542776E-01                                                                                                                                                                                                                                                                                                                                                                                                                                                                                              
  1.250000E+02  1.250000E+02 -4.725000E+03  9.902581E-08 -1.679348E-08  2.942943E-10  9.759100E-08  5.327860E-10 -8.980280E-11  1.574442E-12  5.251609E-10  0.000000E+00  0.000000E+00  0.000000E+00  0.000000E+00  0.000000E+00  0.000000E+00  0.000000E+00  0.000000E+00  6.528160E-01 -2.339986E-03 -2.941382E-03  6.528052E-01                                                                                                                                                                                                                                                                                                                                                                                                                                                                                              
  3.750000E+02  1.250000E+02 -4.725000E+03  1.469943E-07 -4.406659E-08  2.891383E-10  1.402333E-07  7.881755E-10 -2.355607E-10  1.545782E-12  7.521498E-10  0.000000E+00  0.000000E+00  0.000000E+00  0.000000E+00  0.000000E+00  0.000000E+00  0.000000E+00  0.000000E+00  7.000532E-01 -1.321672E-02 -2.622619E-03  6.999235E-01                                                                                                                                                                                                                                                                                                                                                                                                                                                                                              
  6.250000E+02  1.250000E+02 -4.725000E+03  2.208815E-07 -5.086501E-08  2.960899E-10  2.149449E-07  1.181636E-09 -2.717919E-10  1.582132E-12  1.149952E-09  0.000000E+00  0.000000E+00  0.000000E+00  0.000000E+00  0.000000E+00  0.000000E+00  0.000000E+00  0.000000E+00  7.557165E-01 -2.221421E-02 -2.272622E-03  7.553865E-01                                                                                                                                                                                                                                                                                                                                                                                                                                                                                              
  8.750000E+02  1.250000E+02 -4.725000E+03  2.845970E-07 -2.890952E-08  3.277119E-10  2.831246E-07  1.521022E-09 -1.544377E-10  1.750615E-12  1.513160E-09  0.000000E+00  0.000000E+00  0.000000E+00  0.000000E+00  0.000000E+00  0.000000E+00  0.000000E+00  0.000000E+00  8.034926E-01 -1.380645E-02 -2.166492E-03  8.033711E-01                                                                                                                                                                                                                                                                                                                                                                                                                                                                                              
  1.050000E+03  1.250000E+02 -4.725000E+03  2.923607E-07  9.467531E-11  3.558407E-10  2.923605E-07  1.562275E-09  5.057019E-13  1.900848E-12  1.562274E-09  0.000000E+00  0.000000E+00  0.000000E+00  0.000000E+00  0.000000E+00  0.000000E+00  0.000000E+00  0.000000E+00  8.118688E-01  6.015104E-05 -2.279655E-03  8.118656E-01                                                                                                                                                                                                                                                                                                                                                                                                                                                                                              
  1.225000E+03  1.250000E+02 -4.725000E+03  2.844967E-07  2.908791E-08  3.276251E-10  2.830056E-07  1.520494E-09  1.553907E-10  1.750152E-12  1.512532E-09  0.000000E+00  0.000000E+00  0.000000E+00  0.000000E+00  0.000000E+00  0.000000E+00  0.000000E+00  0.000000E+00  8.034207E-01  1.391981E-02 -2.166546E-03  8.032972E-01                                                                                                                                                                                                                                                                                                                                                                                                                                                                                              
  1.475000E+03  1.250000E+02 -4.725000E+03  2.206511E-07  5.100982E-08  2.959010E-10  2.146738E-07  1.180421E-09  2.725657E-10  1.581123E-12  1.148520E-09  0.000000E+00  0.000000E+00  0.000000E+00  0.000000E+00  0.000000E+00  0.000000E+00  0.000000E+00  0.000000E+00  7.555504E-01  2.230632E-02 -2.272744E-03  7.552177E-01                                                                                                                                                                                                                                                                                                                                                                                                                                                                                              
  1.725000E+03  1.250000E+02 -4.725000E+03  1.466557E-07  4.415887E-08  2.888452E-10  1.398492E-07  7.863865E-10  2.360540E-10  1.544216E-12  7.501199E-10  0.000000E+00  0.000000E+00  0.000000E+00  0.000000E+00  0.000000E+00  0.000000E+00  0.000000E+00  0.000000E+00  6.998139E-01  1.327559E-02 -2.622803E-03  6.996830E-01                                                                                                                                                                                                                                                                                                                                                                                                                                                                                              