Title="TOUGHREACT V3.30-OMP: Mineral Abundances(Total or Changes) and/or Exchanged Species: Change in volume fraction"                                                                                                                                                                                                                                                                                                                                                                                                                                                                                                                                                                                                                                                                                                          
Variables= "X(m)"   "Y(m)"   "Z(m)"       "T(C)"   "Porosity"  "Poros_Chg" "Permx(m^2)"     "Kx/Kx0" "Permz(m^2)"     "Kz/Kz0" "quartz(alpha"     "dolomite"    "kaolinite"       "barite"                                                                                                                                                                                                                                                                                                                                                                                                                                                                                                                                                                                                                                      
Zone T= "1.64274691E-02 yr" I=      5J=      5K=     10F=Point 
       0.5000       0.5000      -9.5000   88.851  0.10004  4.01694E-05  1.10000E-12  1.0000E+00  1.10000E-12  1.0000E+00 -5.9360E-05 -9.8453E-05 -4.1840E-06 -2.9975E-07                                                                                                                                                                                                                                                                                                                                                                                                                                                                                                                                                                                                                                                        
       1.5000       0.5000      -9.5000   88.859  0.10004  4.02617E-05  1.10000E-12  1.0000E+00  1.10000E-12  1.0000E+00 -5.9379E-05 -9.8495E-05 -4.1864E-06 -2.9982E-07                                                                                                                                                                                                                                                                                                                                                                                                                                                                                                                                                                                                                                                        
       2.5000       0.5000      -9.5000   88.881  0.30012  1.21532E-04  1.10000E-10  1.0000E+00  1.10000E-10  1.0000E+00 -1.7830E-04 -2.9582E-04 -1.2578E-05 -8.9996E-07                                                                                                                                                                                                                                                                                                                                                                                                                                                                                                                                                                                                                                                        
       3.5000       0.5000      -9.5000   88.859  0.10004  4.02617E-05  1.10000E-12  1.0000E+00  1.10000E-12  1.0000E+00 -5.9379E-05 -9.8495E-05 -4.1864E-06 -2.9982E-07                                                                                                                                                                                                                                                                                                                                                                                                                                                                                                                                                                                                                                                        
       4.5000       0.5000      -9.5000   88.851  0.10004  4.01694E-05  1.10000E-12  1.0000E+00  1.10000E-12  1.0000E+00 -5.9360E-05 -9.8453E-05 -4.1840E-06 -2.9975E-07                                                                                                                                                                                                                                                                                                                                                                                                                                                                                                                                                                                                                                                        
       0.5000       0.5000      -8.5000   88.292  0.10004  3.76371E-05  1.10000E-12  1.0000E+00  1.10000E-12  1.0000E+00 -5.8119E-05 -9.5794E-05 -4.0323E-06 -2.9583E-07                                                                                                                                                                                                                                                                                                                                                                                                                                                                                                                                                                                                                                                        
       1.5000       0.5000      -8.5000   88.297  0.10004  3.76955E-05  1.10000E-12  1.0000E+00  1.10000E-12  1.0000E+00 -5.8131E-05 -9.5820E-05 -4.0338E-06 -2.9587E-07                                                                                                                                                                                                                                                                                                                                                                                                                                                                                                                                                                                                                                                        
       2.5000       0.5000      -8.5000   88.310  0.30011  1.13508E-04  1.10000E-10  1.0000E+00  1.10000E-10  1.0000E+00 -1.7448E-04 -2.8764E-04 -1.2112E-05 -8.8790E-07                                                                                                                                                                                                                                                                                                                                                                                                                                                                                                                                                                                                                                                        
       3.5000       0.5000      -8.5000   88.297  0.10004  3.76955E-05  1.10000E-12  1.0000E+00  1.10000E-12  1.0000E+00 -5.8131E-05 -9.5820E-05 -4.0338E-06 -2.9587E-07                                                                                                                                                                                                                                                                                                                                                                                                                                                                                                                                                                                                                                                        
       4.5000       0.5000      -8.5000   88.292  0.10004  3.76371E-05  1.10000E-12  1.0000E+00  1.10000E-12  1.0000E+00 -5.8119E-05 -9.5794E-05 -4.0323E-06 -2.9583E-07                                                                                                                                                                                                                                                                                                                                                                                                                                                                                                                                                                                                                                                        
       0.5000       0.5000      -7.5000   87.446  0.10003  3.22808E-05  1.10000E-12  1.0000E+00  1.10000E-12  1.0000E+00 -5.6262E-05 -9.1860E-05 -3.8107E-06 -2.8984E-07                                                                                                                                                                                                                                                                                                                                                                                                                                                                                                                                                                                                                                                        
       1.5000       0.5000      -7.5000   87.449  0.10003  3.23134E-05  1.10000E-12  1.0000E+00  1.10000E-12  1.0000E+00 -5.6269E-05 -9.1874E-05 -3.8114E-06 -2.8986E-07                                                                                                                                                                                                                                                                                                                                                                                                                                                                                                                                                                                                                                                        
       2.5000       0.5000      -7.5000   87.455  0.30010  9.71626E-05  1.10000E-10  1.0000E+00  1.10000E-10  1.0000E+00 -1.6885E-04 -2.7572E-04 -1.1440E-05 -8.6975E-07                                                                                                                                                                                                                                                                                                                                                                                                                                                                                                                                                                                                                                                        
       3.5000       0.5000      -7.5000   87.449  0.10003  3.23134E-05  1.10000E-12  1.0000E+00  1.10000E-12  1.0000E+00 -5.6269E-05 -9.1874E-05 -3.8114E-06 -2.8986E-07                                                                                                                                                                                                                                                                                                                                                                                                                                                                                                                                                                                                                                                        
       4.5000       0.5000      -7.5000   87.446  0.10003  3.22808E-05  1.10000E-12  1.0000E+00  1.10000E-12  1.0000E+00 -5.6262E-05 -9.1860E-05 -3.8107E-06 -2.8984E-07                                                                                                                                                                                                                                                                                                                                                                                                                                                                                                                                                                                                                                                        
       0.5000       0.5000      -6.5000   86.492  0.10003  2.61207E-05  1.10000E-12  1.0000E+00  1.10000E-12  1.0000E+00 -5.4244E-05 -8.7624E-05 -3.5751E-06 -2.8325E-07                                                                                                                                                                                                                                                                                                                                                                                                                                                                                                                                                                                                                                                        
       1.5000       0.5000      -6.5000   86.495  0.10003  2.61408E-05  1.10000E-12  1.0000E+00  1.10000E-12  1.0000E+00 -5.4248E-05 -8.7632E-05 -3.5756E-06 -2.8327E-07                                                                                                                                                                                                                                                                                                                                                                                                                                                                                                                                                                                                                                                        
       2.5000       0.5000      -6.5000   86.498  0.30008  7.85631E-05  1.10000E-10  1.0000E+00  1.10000E-10  1.0000E+00 -1.6278E-04 -2.6296E-04 -1.0730E-05 -8.4991E-07                                                                                                                                                                                                                                                                                                                                                                                                                                                                                                                                                                                                                                                        
       3.5000       0.5000      -6.5000   86.495  0.10003  2.61408E-05  1.10000E-12  1.0000E+00  1.10000E-12  1.0000E+00 -5.4248E-05 -8.7632E-05 -3.5756E-06 -2.8327E-07                                                                                                                                                                                                                                                                                                                                                                                                                                                                                                                                                                                                                                                        
       4.5000       0.5000      -6.5000   86.492  0.10003  2.61207E-05  1.10000E-12  1.0000E+00  1.10000E-12  1.0000E+00 -5.4244E-05 -8.7624E-05 -3.5751E-06 -2.8325E-07                                                                                                                                                                                                                                                                                                                                                                                                                                                                                                                                                                                                                                                        
       0.5000       0.5000      -5.5000   85.506  0.10002  1.99518E-05  1.10000E-12  1.0000E+00  1.10000E-12  1.0000E+00 -5.2243E-05 -8.3459E-05 -3.3467E-06 -2.7665E-07                                                                                                                                                                                                                                                                                                                                                                                                                                                                                                                                                                                                                                                        
       1.5000       0.5000      -5.5000   85.507  0.10002  1.99660E-05  1.10000E-12  1.0000E+00  1.10000E-12  1.0000E+00 -5.2245E-05 -8.3465E-05 -3.3470E-06 -2.7666E-07                                                                                                                                                                                                                                                                                                                                                                                                                                                                                                                                                                                                                                                        
       2.5000       0.5000      -5.5000   85.509  0.30006  6.00161E-05  1.10000E-10  1.0000E+00  1.10000E-10  1.0000E+00 -1.5677E-04 -2.5046E-04 -1.0044E-05 -8.3008E-07                                                                                                                                                                                                                                                                                                                                                                                                                                                                                                                                                                                                                                                        
       3.5000       0.5000      -5.5000   85.507  0.10002  1.99660E-05  1.10000E-12  1.0000E+00  1.10000E-12  1.0000E+00 -5.2245E-05 -8.3465E-05 -3.3470E-06 -2.7666E-07                                                                                                                                                                                                                                                                                                                                                                                                                                                                                                                                                                                                                                                        
       4.5000       0.5000      -5.5000   85.506  0.10002  1.99518E-05  1.10000E-12  1.0000E+00  1.10000E-12  1.0000E+00 -5.2243E-05 -8.3459E-05 -3.3467E-06 -2.7665E-07                                                                                                                                                                                                                                                                                                                                                                                                                                                                                                                                                                                                                                                        
       0.5000       0.5000      -4.5000   84.512  0.10001  1.40913E-05  1.10000E-17  1.0000E+00  1.10000E-17  1.0000E+00 -5.0315E-05 -7.9483E-05 -3.1318E-06 -2.7022E-07                                                                                                                                                                                                                                                                                                                                                                                                                                                                                                                                                                                                                                                        
       1.5000       0.5000      -4.5000   84.513  0.10001  1.40725E-05  1.10000E-17  1.0000E+00  1.10000E-17  1.0000E+00 -5.0317E-05 -7.9487E-05 -3.1320E-06 -2.7023E-07                                                                                                                                                                                                                                                                                                                                                                                                                                                                                                                                                                                                                                                        
       2.5000       0.5000      -4.5000   84.515  0.30004  4.22248E-05  1.10000E-10  1.0000E+00  1.10000E-10  1.0000E+00 -1.5097E-04 -2.3851E-04 -9.3987E-06 -8.1076E-07                                                                                                                                                                                                                                                                                                                                                                                                                                                                                                                                                                                                                                                        
       3.5000       0.5000      -4.5000   84.513  0.10001  1.40725E-05  1.10000E-17  1.0000E+00  1.10000E-17  1.0000E+00 -5.0317E-05 -7.9487E-05 -3.1320E-06 -2.7023E-07                                                                                                                                                                                                                                                                                                                                                                                                                                                                                                                                                                                                                                                        
       4.5000       0.5000      -4.5000   84.512  0.10001  1.40913E-05  1.10000E-17  1.0000E+00  1.10000E-17  1.0000E+00 -5.0315E-05 -7.9483E-05 -3.1318E-06 -2.7022E-07                                                                                                                                                                                                                                                                                                                                                                                                                                                                                                                                                                                                                                                        
       0.5000       0.5000      -3.5000   83.525  0.10001  8.66422E-06  1.10000E-17  1.0000E+00  1.10000E-17  1.0000E+00 -4.8484E-05 -7.5741E-05 -2.9324E-06 -2.6405E-07                                                                                                                                                                                                                                                                                                                                                                                                                                                                                                                                                                                                                                                        
       1.5000       0.5000      -3.5000   83.526  0.10001  8.57460E-06  1.10000E-17  1.0000E+00  1.10000E-17  1.0000E+00 -4.8485E-05 -7.5742E-05 -2.9325E-06 -2.6405E-07                                                                                                                                                                                                                                                                                                                                                                                                                                                                                                                                                                                                                                                        
       2.5000       0.5000      -3.5000   83.526  0.30003  2.55104E-05  1.10000E-10  1.0000E+00  1.10000E-10  1.0000E+00 -1.4547E-04 -2.2726E-04 -8.7991E-06 -7.9220E-07                                                                                                                                                                                                                                                                                                                                                                                                                                                                                                                                                                                                                                                        
       3.5000       0.5000      -3.5000   83.526  0.10001  8.57460E-06  1.10000E-17  1.0000E+00  1.10000E-17  1.0000E+00 -4.8485E-05 -7.5742E-05 -2.9325E-06 -2.6405E-07                                                                                                                                                                                                                                                                                                                                                                                                                                                                                                                                                                                                                                                        
       4.5000       0.5000      -3.5000   83.525  0.10001  8.66422E-06  1.10000E-17  1.0000E+00  1.10000E-17  1.0000E+00 -4.8484E-05 -7.5741E-05 -2.9324E-06 -2.6405E-07                                                                                                                                                                                                                                                                                                                                                                                                                                                                                                                                                                                                                                                        