Title="TOUGHREACT V3.30-OMP: Mineral Abundances(Total or Changes) and/or Exchanged Species: Change in volume fraction"                                                                                                                                                                                                                                                                                                                                                                                                                                                                                                                                                                                                                                                                                                          
Variables= "X(m)"   "Y(m)"   "Z(m)"       "T(C)"   "Porosity"  "Poros_Chg" "Permx(m^2)"     "Kx/Kx0" "Permz(m^2)"     "Kz/Kz0" "quartz(alpha"     "dolomite"    "kaolinite"       "barite"                                                                                                                                                                                                                                                                                                                                                                                                                                                                                                                                                                                                                                      
Zone T= "1.00000000E+01 yr" I=      5J=      5K=     10F=Point 
       0.5000       0.5000      -9.5000   85.009  0.10000  1.35348E-06  1.10000E-12  1.0000E+00  1.10000E-12  1.0000E+00 -5.0977E-05 -8.0978E-05 -3.2171E-06 -2.7175E-07                                                                                                                                                                                                                                                                                                                                                                                                                                                                                                                                                                                                                                                        
       1.5000       0.5000      -9.5000   85.009  0.10000  1.35770E-06  1.10000E-12  1.0000E+00  1.10000E-12  1.0000E+00 -5.0977E-05 -8.0977E-05 -3.2171E-06 -2.7175E-07                                                                                                                                                                                                                                                                                                                                                                                                                                                                                                                                                                                                                                                        
       2.5000       0.5000      -9.5000   85.009  0.30000  4.05306E-06  1.10000E-10  1.0000E+00  1.10000E-10  1.0000E+00 -1.5291E-04 -2.4289E-04 -9.6492E-06 -8.1520E-07                                                                                                                                                                                                                                                                                                                                                                                                                                                                                                                                                                                                                                                        
       3.5000       0.5000      -9.5000   85.009  0.10000  1.35710E-06  1.10000E-12  1.0000E+00  1.10000E-12  1.0000E+00 -5.0977E-05 -8.0977E-05 -3.2171E-06 -2.7175E-07                                                                                                                                                                                                                                                                                                                                                                                                                                                                                                                                                                                                                                                        
       4.5000       0.5000      -9.5000   85.009  0.10000  1.35356E-06  1.10000E-12  1.0000E+00  1.10000E-12  1.0000E+00 -5.0977E-05 -8.0978E-05 -3.2171E-06 -2.7175E-07                                                                                                                                                                                                                                                                                                                                                                                                                                                                                                                                                                                                                                                        
       0.5000       0.5000      -8.5000   85.009  0.10000  4.77076E-06  1.10000E-12  1.0000E+00  1.10000E-12  1.0000E+00 -5.1057E-05 -8.1114E-05 -3.2235E-06 -2.7217E-07                                                                                                                                                                                                                                                                                                                                                                                                                                                                                                                                                                                                                                                        
       1.5000       0.5000      -8.5000   85.009  0.10000  4.76410E-06  1.10000E-12  1.0000E+00  1.10000E-12  1.0000E+00 -5.1054E-05 -8.1107E-05 -3.2231E-06 -2.7216E-07                                                                                                                                                                                                                                                                                                                                                                                                                                                                                                                                                                                                                                                        
       2.5000       0.5000      -8.5000   85.009  0.30001  1.41533E-05  1.10000E-10  1.0000E+00  1.10000E-10  1.0000E+00 -1.5311E-04 -2.4322E-04 -9.6635E-06 -8.1632E-07                                                                                                                                                                                                                                                                                                                                                                                                                                                                                                                                                                                                                                                        
       3.5000       0.5000      -8.5000   85.009  0.10000  4.76407E-06  1.10000E-12  1.0000E+00  1.10000E-12  1.0000E+00 -5.1054E-05 -8.1107E-05 -3.2231E-06 -2.7216E-07                                                                                                                                                                                                                                                                                                                                                                                                                                                                                                                                                                                                                                                        
       4.5000       0.5000      -8.5000   85.009  0.10000  4.77084E-06  1.10000E-12  1.0000E+00  1.10000E-12  1.0000E+00 -5.1057E-05 -8.1114E-05 -3.2235E-06 -2.7217E-07                                                                                                                                                                                                                                                                                                                                                                                                                                                                                                                                                                                                                                                        
       0.5000       0.5000      -7.5000   85.009  0.10001  8.15326E-06  1.10000E-12  1.0000E+00  1.10000E-12  1.0000E+00 -5.1126E-05 -8.1227E-05 -3.2285E-06 -2.7256E-07                                                                                                                                                                                                                                                                                                                                                                                                                                                                                                                                                                                                                                                        
       1.5000       0.5000      -7.5000   85.009  0.10001  8.14194E-06  1.10000E-12  1.0000E+00  1.10000E-12  1.0000E+00 -5.1122E-05 -8.1218E-05 -3.2280E-06 -2.7254E-07                                                                                                                                                                                                                                                                                                                                                                                                                                                                                                                                                                                                                                                        
       2.5000       0.5000      -7.5000   85.009  0.30002  2.42999E-05  1.10000E-10  1.0000E+00  1.10000E-10  1.0000E+00 -1.5332E-04 -2.4356E-04 -9.6791E-06 -8.1748E-07                                                                                                                                                                                                                                                                                                                                                                                                                                                                                                                                                                                                                                                        
       3.5000       0.5000      -7.5000   85.009  0.10001  8.14200E-06  1.10000E-12  1.0000E+00  1.10000E-12  1.0000E+00 -5.1122E-05 -8.1218E-05 -3.2280E-06 -2.7254E-07                                                                                                                                                                                                                                                                                                                                                                                                                                                                                                                                                                                                                                                        
       4.5000       0.5000      -7.5000   85.009  0.10001  8.15349E-06  1.10000E-12  1.0000E+00  1.10000E-12  1.0000E+00 -5.1127E-05 -8.1227E-05 -3.2285E-06 -2.7256E-07                                                                                                                                                                                                                                                                                                                                                                                                                                                                                                                                                                                                                                                        
       0.5000       0.5000      -6.5000   85.009  0.10001  1.15035E-05  1.10000E-12  1.0000E+00  1.10000E-12  1.0000E+00 -5.1186E-05 -8.1320E-05 -3.2324E-06 -2.7291E-07                                                                                                                                                                                                                                                                                                                                                                                                                                                                                                                                                                                                                                                        
       1.5000       0.5000      -6.5000   85.009  0.10001  1.14952E-05  1.10000E-12  1.0000E+00  1.10000E-12  1.0000E+00 -5.1183E-05 -8.1314E-05 -3.2321E-06 -2.7290E-07                                                                                                                                                                                                                                                                                                                                                                                                                                                                                                                                                                                                                                                        
       2.5000       0.5000      -6.5000   85.009  0.30003  3.45481E-05  1.10000E-10  1.0000E+00  1.10000E-10  1.0000E+00 -1.5357E-04 -2.4398E-04 -9.6982E-06 -8.1876E-07                                                                                                                                                                                                                                                                                                                                                                                                                                                                                                                                                                                                                                                        
       3.5000       0.5000      -6.5000   85.009  0.10001  1.14956E-05  1.10000E-12  1.0000E+00  1.10000E-12  1.0000E+00 -5.1183E-05 -8.1314E-05 -3.2321E-06 -2.7290E-07                                                                                                                                                                                                                                                                                                                                                                                                                                                                                                                                                                                                                                                        
       4.5000       0.5000      -6.5000   85.009  0.10001  1.15036E-05  1.10000E-12  1.0000E+00  1.10000E-12  1.0000E+00 -5.1186E-05 -8.1320E-05 -3.2324E-06 -2.7291E-07                                                                                                                                                                                                                                                                                                                                                                                                                                                                                                                                                                                                                                                        
       0.5000       0.5000      -5.5000   85.009  0.10001  1.48303E-05  1.10000E-12  1.0000E+00  1.10000E-12  1.0000E+00 -5.1239E-05 -8.1399E-05 -3.2356E-06 -2.7324E-07                                                                                                                                                                                                                                                                                                                                                                                                                                                                                                                                                                                                                                                        
       1.5000       0.5000      -5.5000   85.009  0.10001  1.48283E-05  1.10000E-12  1.0000E+00  1.10000E-12  1.0000E+00 -5.1238E-05 -8.1398E-05 -3.2355E-06 -2.7323E-07                                                                                                                                                                                                                                                                                                                                                                                                                                                                                                                                                                                                                                                        
       2.5000       0.5000      -5.5000   85.009  0.30004  4.47056E-05  1.10000E-10  1.0000E+00  1.10000E-10  1.0000E+00 -1.5378E-04 -2.4433E-04 -9.7142E-06 -8.1993E-07                                                                                                                                                                                                                                                                                                                                                                                                                                                                                                                                                                                                                                                        
       3.5000       0.5000      -5.5000   85.009  0.10001  1.48290E-05  1.10000E-12  1.0000E+00  1.10000E-12  1.0000E+00 -5.1238E-05 -8.1398E-05 -3.2356E-06 -2.7324E-07                                                                                                                                                                                                                                                                                                                                                                                                                                                                                                                                                                                                                                                        
       4.5000       0.5000      -5.5000   85.009  0.10001  1.48304E-05  1.10000E-12  1.0000E+00  1.10000E-12  1.0000E+00 -5.1239E-05 -8.1399E-05 -3.2356E-06 -2.7324E-07                                                                                                                                                                                                                                                                                                                                                                                                                                                                                                                                                                                                                                                        
       0.5000       0.5000      -4.5000   85.009  0.10002  1.81732E-05  1.10000E-17  1.0000E+00  1.10000E-17  1.0000E+00 -5.1296E-05 -8.1488E-05 -3.2393E-06 -2.7358E-07                                                                                                                                                                                                                                                                                                                                                                                                                                                                                                                                                                                                                                                        
       1.5000       0.5000      -4.5000   85.009  0.10002  1.81709E-05  1.10000E-17  1.0000E+00  1.10000E-17  1.0000E+00 -5.1295E-05 -8.1486E-05 -3.2393E-06 -2.7357E-07                                                                                                                                                                                                                                                                                                                                                                                                                                                                                                                                                                                                                                                        
       2.5000       0.5000      -4.5000   85.009  0.30005  5.47061E-05  1.10000E-10  1.0000E+00  1.10000E-10  1.0000E+00 -1.5395E-04 -2.4459E-04 -9.7246E-06 -8.2095E-07                                                                                                                                                                                                                                                                                                                                                                                                                                                                                                                                                                                                                                                        
       3.5000       0.5000      -4.5000   85.009  0.10002  1.81710E-05  1.10000E-17  1.0000E+00  1.10000E-17  1.0000E+00 -5.1295E-05 -8.1486E-05 -3.2393E-06 -2.7357E-07                                                                                                                                                                                                                                                                                                                                                                                                                                                                                                                                                                                                                                                        
       4.5000       0.5000      -4.5000   85.009  0.10002  1.81732E-05  1.10000E-17  1.0000E+00  1.10000E-17  1.0000E+00 -5.1296E-05 -8.1488E-05 -3.2393E-06 -2.7358E-07                                                                                                                                                                                                                                                                                                                                                                                                                                                                                                                                                                                                                                                        
       0.5000       0.5000      -3.5000   85.009  0.10002  2.15017E-05  1.10000E-17  1.0000E+00  1.10000E-17  1.0000E+00 -5.1349E-05 -8.1569E-05 -3.2427E-06 -2.7390E-07                                                                                                                                                                                                                                                                                                                                                                                                                                                                                                                                                                                                                                                        
       1.5000       0.5000      -3.5000   85.009  0.10002  2.14998E-05  1.10000E-17  1.0000E+00  1.10000E-17  1.0000E+00 -5.1349E-05 -8.1567E-05 -3.2426E-06 -2.7390E-07                                                                                                                                                                                                                                                                                                                                                                                                                                                                                                                                                                                                                                                        
       2.5000       0.5000      -3.5000   85.009  0.30006  6.46368E-05  1.10000E-10  1.0000E+00  1.10000E-10  1.0000E+00 -1.5409E-04 -2.4480E-04 -9.7329E-06 -8.2188E-07                                                                                                                                                                                                                                                                                                                                                                                                                                                                                                                                                                                                                                                        
       3.5000       0.5000      -3.5000   85.009  0.10002  2.14999E-05  1.10000E-17  1.0000E+00  1.10000E-17  1.0000E+00 -5.1349E-05 -8.1567E-05 -3.2426E-06 -2.7390E-07                                                                                                                                                                                                                                                                                                                                                                                                                                                                                                                                                                                                                                                        
       4.5000       0.5000      -3.5000   85.009  0.10002  2.15017E-05  1.10000E-17  1.0000E+00  1.10000E-17  1.0000E+00 -5.1349E-05 -8.1569E-05 -3.2427E-06 -2.7390E-07                                                                                                                                                                                                                                                                                                                                                                                                                                                                                                                                                                                                                                                        