Title="TOUGHREACT V3.30-OMP: Mineral Abundances(Total or Changes) and/or Exchanged Species: Change in volume fraction"                                                                                                                                                                                                                                                                                                                                                                                                                                                                                                                                                                                                                                                                                                          
Variables= "X(m)"   "Y(m)"   "Z(m)"       "T(C)"   "Porosity"  "Poros_Chg" "Permx(m^2)"     "Kx/Kx0" "Permz(m^2)"     "Kz/Kz0" "quartz(alpha"     "dolomite"    "kaolinite"       "barite"                                                                                                                                                                                                                                                                                                                                                                                                                                                                                                                                                                                                                                      
Zone T= "1.58443954E-09 yr" I=      5J=      5K=     10F=Point 
       0.5000       0.5000      -9.5000   89.500  0.10017  1.69385E-04  1.10000E-12  1.0000E+00  1.10000E-12  1.0000E+00 -6.1643E-05 -1.0312E-04 -4.4237E-06 -3.0672E-07                                                                                                                                                                                                                                                                                                                                                                                                                                                                                                                                                                                                                                                        
       1.5000       0.5000      -9.5000   89.500  0.10017  1.69276E-04  1.10000E-12  1.0000E+00  1.10000E-12  1.0000E+00 -6.1643E-05 -1.0312E-04 -4.4237E-06 -3.0672E-07                                                                                                                                                                                                                                                                                                                                                                                                                                                                                                                                                                                                                                                        
       2.5000       0.5000      -9.5000   89.500  0.30051  5.07110E-04  1.10000E-10  1.0000E+00  1.10000E-10  1.0000E+00 -1.8492E-04 -3.0936E-04 -1.3271E-05 -9.2014E-07                                                                                                                                                                                                                                                                                                                                                                                                                                                                                                                                                                                                                                                        
       3.5000       0.5000      -9.5000   89.500  0.10017  1.69276E-04  1.10000E-12  1.0000E+00  1.10000E-12  1.0000E+00 -6.1643E-05 -1.0312E-04 -4.4237E-06 -3.0672E-07                                                                                                                                                                                                                                                                                                                                                                                                                                                                                                                                                                                                                                                        
       4.5000       0.5000      -9.5000   89.500  0.10017  1.69385E-04  1.10000E-12  1.0000E+00  1.10000E-12  1.0000E+00 -6.1643E-05 -1.0312E-04 -4.4237E-06 -3.0672E-07                                                                                                                                                                                                                                                                                                                                                                                                                                                                                                                                                                                                                                                        
       0.5000       0.5000      -8.5000   88.500  0.10016  1.61747E-04  1.10000E-12  1.0000E+00  1.10000E-12  1.0000E+00 -5.9285E-05 -9.8079E-05 -4.1361E-06 -2.9919E-07                                                                                                                                                                                                                                                                                                                                                                                                                                                                                                                                                                                                                                                        
       1.5000       0.5000      -8.5000   88.500  0.10016  1.61664E-04  1.10000E-12  1.0000E+00  1.10000E-12  1.0000E+00 -5.9284E-05 -9.8078E-05 -4.1361E-06 -2.9919E-07                                                                                                                                                                                                                                                                                                                                                                                                                                                                                                                                                                                                                                                        
       2.5000       0.5000      -8.5000   88.500  0.30048  4.84466E-04  1.10000E-10  1.0000E+00  1.10000E-10  1.0000E+00 -1.7785E-04 -2.9423E-04 -1.2408E-05 -8.9755E-07                                                                                                                                                                                                                                                                                                                                                                                                                                                                                                                                                                                                                                                        
       3.5000       0.5000      -8.5000   88.500  0.10016  1.61664E-04  1.10000E-12  1.0000E+00  1.10000E-12  1.0000E+00 -5.9284E-05 -9.8078E-05 -4.1361E-06 -2.9919E-07                                                                                                                                                                                                                                                                                                                                                                                                                                                                                                                                                                                                                                                        
       4.5000       0.5000      -8.5000   88.500  0.10016  1.61747E-04  1.10000E-12  1.0000E+00  1.10000E-12  1.0000E+00 -5.9285E-05 -9.8079E-05 -4.1361E-06 -2.9919E-07                                                                                                                                                                                                                                                                                                                                                                                                                                                                                                                                                                                                                                                        
       0.5000       0.5000      -7.5000   87.500  0.10015  1.54472E-04  1.10000E-12  1.0000E+00  1.10000E-12  1.0000E+00 -5.7032E-05 -9.3305E-05 -3.8676E-06 -2.9192E-07                                                                                                                                                                                                                                                                                                                                                                                                                                                                                                                                                                                                                                                        
       1.5000       0.5000      -7.5000   87.500  0.10015  1.54417E-04  1.10000E-12  1.0000E+00  1.10000E-12  1.0000E+00 -5.7031E-05 -9.3305E-05 -3.8675E-06 -2.9192E-07                                                                                                                                                                                                                                                                                                                                                                                                                                                                                                                                                                                                                                                        
       2.5000       0.5000      -7.5000   87.500  0.30046  4.62918E-04  1.10000E-10  1.0000E+00  1.10000E-10  1.0000E+00 -1.7109E-04 -2.7991E-04 -1.1603E-05 -8.7576E-07                                                                                                                                                                                                                                                                                                                                                                                                                                                                                                                                                                                                                                                        
       3.5000       0.5000      -7.5000   87.500  0.10015  1.54417E-04  1.10000E-12  1.0000E+00  1.10000E-12  1.0000E+00 -5.7031E-05 -9.3305E-05 -3.8675E-06 -2.9192E-07                                                                                                                                                                                                                                                                                                                                                                                                                                                                                                                                                                                                                                                        
       4.5000       0.5000      -7.5000   87.500  0.10015  1.54472E-04  1.10000E-12  1.0000E+00  1.10000E-12  1.0000E+00 -5.7032E-05 -9.3305E-05 -3.8676E-06 -2.9192E-07                                                                                                                                                                                                                                                                                                                                                                                                                                                                                                                                                                                                                                                        
       0.5000       0.5000      -6.5000   86.500  0.10015  1.47565E-04  1.10000E-12  1.0000E+00  1.10000E-12  1.0000E+00 -5.4879E-05 -8.8785E-05 -3.6167E-06 -2.8491E-07                                                                                                                                                                                                                                                                                                                                                                                                                                                                                                                                                                                                                                                        
       1.5000       0.5000      -6.5000   86.500  0.10015  1.47535E-04  1.10000E-12  1.0000E+00  1.10000E-12  1.0000E+00 -5.4879E-05 -8.8784E-05 -3.6167E-06 -2.8491E-07                                                                                                                                                                                                                                                                                                                                                                                                                                                                                                                                                                                                                                                        
       2.5000       0.5000      -6.5000   86.500  0.30044  4.42428E-04  1.10000E-10  1.0000E+00  1.10000E-10  1.0000E+00 -1.6464E-04 -2.6635E-04 -1.0850E-05 -8.5473E-07                                                                                                                                                                                                                                                                                                                                                                                                                                                                                                                                                                                                                                                        
       3.5000       0.5000      -6.5000   86.500  0.10015  1.47535E-04  1.10000E-12  1.0000E+00  1.10000E-12  1.0000E+00 -5.4879E-05 -8.8784E-05 -3.6167E-06 -2.8491E-07                                                                                                                                                                                                                                                                                                                                                                                                                                                                                                                                                                                                                                                        
       4.5000       0.5000      -6.5000   86.500  0.10015  1.47565E-04  1.10000E-12  1.0000E+00  1.10000E-12  1.0000E+00 -5.4879E-05 -8.8785E-05 -3.6167E-06 -2.8491E-07                                                                                                                                                                                                                                                                                                                                                                                                                                                                                                                                                                                                                                                        
       0.5000       0.5000      -5.5000   85.500  0.10014  1.41036E-04  1.10000E-12  1.0000E+00  1.10000E-12  1.0000E+00 -5.2822E-05 -8.4503E-05 -3.3825E-06 -2.7814E-07                                                                                                                                                                                                                                                                                                                                                                                                                                                                                                                                                                                                                                                        
       1.5000       0.5000      -5.5000   85.500  0.10014  1.41018E-04  1.10000E-12  1.0000E+00  1.10000E-12  1.0000E+00 -5.2822E-05 -8.4503E-05 -3.3825E-06 -2.7814E-07                                                                                                                                                                                                                                                                                                                                                                                                                                                                                                                                                                                                                                                        
       2.5000       0.5000      -5.5000   85.500  0.30042  4.22957E-04  1.10000E-10  1.0000E+00  1.10000E-10  1.0000E+00 -1.5846E-04 -2.5351E-04 -1.0147E-05 -8.3443E-07                                                                                                                                                                                                                                                                                                                                                                                                                                                                                                                                                                                                                                                        
       3.5000       0.5000      -5.5000   85.500  0.10014  1.41018E-04  1.10000E-12  1.0000E+00  1.10000E-12  1.0000E+00 -5.2822E-05 -8.4503E-05 -3.3825E-06 -2.7814E-07                                                                                                                                                                                                                                                                                                                                                                                                                                                                                                                                                                                                                                                        
       4.5000       0.5000      -5.5000   85.500  0.10014  1.41036E-04  1.10000E-12  1.0000E+00  1.10000E-12  1.0000E+00 -5.2822E-05 -8.4503E-05 -3.3825E-06 -2.7814E-07                                                                                                                                                                                                                                                                                                                                                                                                                                                                                                                                                                                                                                                        
       0.5000       0.5000      -4.5000   84.500  0.10013  1.34736E-04  1.10000E-17  1.0000E+00  1.10000E-17  1.0000E+00 -5.0854E-05 -8.0446E-05 -3.1637E-06 -2.7160E-07                                                                                                                                                                                                                                                                                                                                                                                                                                                                                                                                                                                                                                                        
       1.5000       0.5000      -4.5000   84.500  0.10013  1.34736E-04  1.10000E-17  1.0000E+00  1.10000E-17  1.0000E+00 -5.0854E-05 -8.0446E-05 -3.1637E-06 -2.7160E-07                                                                                                                                                                                                                                                                                                                                                                                                                                                                                                                                                                                                                                                        
       2.5000       0.5000      -4.5000   84.500  0.30040  4.04465E-04  1.10000E-10  1.0000E+00  1.10000E-10  1.0000E+00 -1.5256E-04 -2.4134E-04 -9.4912E-06 -8.1481E-07                                                                                                                                                                                                                                                                                                                                                                                                                                                                                                                                                                                                                                                        
       3.5000       0.5000      -4.5000   84.500  0.10013  1.34736E-04  1.10000E-17  1.0000E+00  1.10000E-17  1.0000E+00 -5.0854E-05 -8.0446E-05 -3.1637E-06 -2.7160E-07                                                                                                                                                                                                                                                                                                                                                                                                                                                                                                                                                                                                                                                        
       4.5000       0.5000      -4.5000   84.500  0.10013  1.34736E-04  1.10000E-17  1.0000E+00  1.10000E-17  1.0000E+00 -5.0854E-05 -8.0446E-05 -3.1637E-06 -2.7160E-07                                                                                                                                                                                                                                                                                                                                                                                                                                                                                                                                                                                                                                                        
       0.5000       0.5000      -3.5000   83.500  0.10013  1.28799E-04  1.10000E-17  1.0000E+00  1.10000E-17  1.0000E+00 -4.8973E-05 -7.6601E-05 -2.9594E-06 -2.6528E-07                                                                                                                                                                                                                                                                                                                                                                                                                                                                                                                                                                                                                                                        
       1.5000       0.5000      -3.5000   83.500  0.10013  1.28799E-04  1.10000E-17  1.0000E+00  1.10000E-17  1.0000E+00 -4.8973E-05 -7.6601E-05 -2.9594E-06 -2.6528E-07                                                                                                                                                                                                                                                                                                                                                                                                                                                                                                                                                                                                                                                        
       2.5000       0.5000      -3.5000   83.500  0.30039  3.86918E-04  1.10000E-10  1.0000E+00  1.10000E-10  1.0000E+00 -1.4692E-04 -2.2981E-04 -8.8783E-06 -7.9585E-07                                                                                                                                                                                                                                                                                                                                                                                                                                                                                                                                                                                                                                                        
       3.5000       0.5000      -3.5000   83.500  0.10013  1.28799E-04  1.10000E-17  1.0000E+00  1.10000E-17  1.0000E+00 -4.8973E-05 -7.6601E-05 -2.9594E-06 -2.6528E-07                                                                                                                                                                                                                                                                                                                                                                                                                                                                                                                                                                                                                                                        
       4.5000       0.5000      -3.5000   83.500  0.10013  1.28799E-04  1.10000E-17  1.0000E+00  1.10000E-17  1.0000E+00 -4.8973E-05 -7.6601E-05 -2.9594E-06 -2.6528E-07                                                                                                                                                                                                                                                                                                                                                                                                                                                                                                                                                                                                                                                        