Title="TOUGHREACT V3.30-OMP: Mineral Abundances(Total or Changes) and/or Exchanged Species: Change in volume fraction"                                                                                                                                                                                                                                                                                                                                                                                                                                                                                                                                                                                                                                                                                                          
Variables= "X(m)"   "Y(m)"   "Z(m)"       "T(C)"   "Porosity"  "Poros_Chg" "Permx(m^2)"     "Kx/Kx0" "Permz(m^2)"     "Kz/Kz0" "quartz(alpha"     "dolomite"    "kaolinite"       "barite"                                                                                                                                                                                                                                                                                                                                                                                                                                                                                                                                                                                                                                      
Zone T= "6.33775814E+03 yr" I=      5J=      5K=     10F=Point 
       0.5000       0.5000      -9.5000   85.009  0.10000  3.05607E-06  1.10000E-12  1.0000E+00  1.10000E-12  1.0000E+00 -5.1520E-05 -8.1965E-05 -3.2506E-06 -2.7305E-07                                                                                                                                                                                                                                                                                                                                                                                                                                                                                                                                                                                                                                                        
       1.5000       0.5000      -9.5000   85.009  0.10000  3.06011E-06  1.10000E-12  1.0000E+00  1.10000E-12  1.0000E+00 -5.1520E-05 -8.1964E-05 -3.2506E-06 -2.7305E-07                                                                                                                                                                                                                                                                                                                                                                                                                                                                                                                                                                                                                                                        
       2.5000       0.5000      -9.5000   85.009  0.30001  9.16078E-06  1.10000E-10  1.0000E+00  1.10000E-10  1.0000E+00 -1.5454E-04 -2.4586E-04 -9.7497E-06 -8.1909E-07                                                                                                                                                                                                                                                                                                                                                                                                                                                                                                                                                                                                                                                        
       3.5000       0.5000      -9.5000   85.009  0.10000  3.05947E-06  1.10000E-12  1.0000E+00  1.10000E-12  1.0000E+00 -5.1519E-05 -8.1964E-05 -3.2506E-06 -2.7304E-07                                                                                                                                                                                                                                                                                                                                                                                                                                                                                                                                                                                                                                                        
       4.5000       0.5000      -9.5000   85.009  0.10000  3.05622E-06  1.10000E-12  1.0000E+00  1.10000E-12  1.0000E+00 -5.1520E-05 -8.1965E-05 -3.2506E-06 -2.7305E-07                                                                                                                                                                                                                                                                                                                                                                                                                                                                                                                                                                                                                                                        
       0.5000       0.5000      -8.5000   85.009  0.10000  4.71080E-06  1.10000E-12  1.0000E+00  1.10000E-12  1.0000E+00 -5.0958E-05 -8.0995E-05 -3.2432E-06 -2.7257E-07                                                                                                                                                                                                                                                                                                                                                                                                                                                                                                                                                                                                                                                        
       1.5000       0.5000      -8.5000   85.009  0.10000  4.70402E-06  1.10000E-12  1.0000E+00  1.10000E-12  1.0000E+00 -5.0955E-05 -8.0989E-05 -3.2428E-06 -2.7256E-07                                                                                                                                                                                                                                                                                                                                                                                                                                                                                                                                                                                                                                                        
       2.5000       0.5000      -8.5000   85.009  0.30001  1.39741E-05  1.10000E-10  1.0000E+00  1.10000E-10  1.0000E+00 -1.5281E-04 -2.4286E-04 -9.7226E-06 -8.1750E-07                                                                                                                                                                                                                                                                                                                                                                                                                                                                                                                                                                                                                                                        
       3.5000       0.5000      -8.5000   85.009  0.10000  4.70409E-06  1.10000E-12  1.0000E+00  1.10000E-12  1.0000E+00 -5.0955E-05 -8.0989E-05 -3.2428E-06 -2.7256E-07                                                                                                                                                                                                                                                                                                                                                                                                                                                                                                                                                                                                                                                        
       4.5000       0.5000      -8.5000   85.009  0.10000  4.71115E-06  1.10000E-12  1.0000E+00  1.10000E-12  1.0000E+00 -5.0958E-05 -8.0996E-05 -3.2432E-06 -2.7257E-07                                                                                                                                                                                                                                                                                                                                                                                                                                                                                                                                                                                                                                                        
       0.5000       0.5000      -7.5000   85.009  0.10001  8.09057E-06  1.10000E-12  1.0000E+00  1.10000E-12  1.0000E+00 -5.1026E-05 -8.1107E-05 -3.2482E-06 -2.7295E-07                                                                                                                                                                                                                                                                                                                                                                                                                                                                                                                                                                                                                                                        
       1.5000       0.5000      -7.5000   85.009  0.10001  8.07913E-06  1.10000E-12  1.0000E+00  1.10000E-12  1.0000E+00 -5.1022E-05 -8.1098E-05 -3.2477E-06 -2.7294E-07                                                                                                                                                                                                                                                                                                                                                                                                                                                                                                                                                                                                                                                        
       2.5000       0.5000      -7.5000   85.009  0.30002  2.41118E-05  1.10000E-10  1.0000E+00  1.10000E-10  1.0000E+00 -1.5302E-04 -2.4320E-04 -9.7381E-06 -8.1867E-07                                                                                                                                                                                                                                                                                                                                                                                                                                                                                                                                                                                                                                                        
       3.5000       0.5000      -7.5000   85.009  0.10001  8.07923E-06  1.10000E-12  1.0000E+00  1.10000E-12  1.0000E+00 -5.1022E-05 -8.1098E-05 -3.2477E-06 -2.7294E-07                                                                                                                                                                                                                                                                                                                                                                                                                                                                                                                                                                                                                                                        
       4.5000       0.5000      -7.5000   85.009  0.10001  8.09092E-06  1.10000E-12  1.0000E+00  1.10000E-12  1.0000E+00 -5.1026E-05 -8.1107E-05 -3.2482E-06 -2.7295E-07                                                                                                                                                                                                                                                                                                                                                                                                                                                                                                                                                                                                                                                        
       0.5000       0.5000      -6.5000   85.009  0.10001  1.14409E-05  1.10000E-12  1.0000E+00  1.10000E-12  1.0000E+00 -5.1086E-05 -8.1200E-05 -3.2521E-06 -2.7330E-07                                                                                                                                                                                                                                                                                                                                                                                                                                                                                                                                                                                                                                                        
       1.5000       0.5000      -6.5000   85.009  0.10001  1.14324E-05  1.10000E-12  1.0000E+00  1.10000E-12  1.0000E+00 -5.1083E-05 -8.1194E-05 -3.2518E-06 -2.7329E-07                                                                                                                                                                                                                                                                                                                                                                                                                                                                                                                                                                                                                                                        
       2.5000       0.5000      -6.5000   85.009  0.30003  3.43604E-05  1.10000E-10  1.0000E+00  1.10000E-10  1.0000E+00 -1.5327E-04 -2.4362E-04 -9.7572E-06 -8.1995E-07                                                                                                                                                                                                                                                                                                                                                                                                                                                                                                                                                                                                                                                        
       3.5000       0.5000      -6.5000   85.009  0.10001  1.14329E-05  1.10000E-12  1.0000E+00  1.10000E-12  1.0000E+00 -5.1083E-05 -8.1194E-05 -3.2518E-06 -2.7330E-07                                                                                                                                                                                                                                                                                                                                                                                                                                                                                                                                                                                                                                                        
       4.5000       0.5000      -6.5000   85.009  0.10001  1.14411E-05  1.10000E-12  1.0000E+00  1.10000E-12  1.0000E+00 -5.1086E-05 -8.1200E-05 -3.2521E-06 -2.7331E-07                                                                                                                                                                                                                                                                                                                                                                                                                                                                                                                                                                                                                                                        
       0.5000       0.5000      -5.5000   85.009  0.10001  1.47677E-05  1.10000E-12  1.0000E+00  1.10000E-12  1.0000E+00 -5.1139E-05 -8.1279E-05 -3.2553E-06 -2.7363E-07                                                                                                                                                                                                                                                                                                                                                                                                                                                                                                                                                                                                                                                        
       1.5000       0.5000      -5.5000   85.009  0.10001  1.47656E-05  1.10000E-12  1.0000E+00  1.10000E-12  1.0000E+00 -5.1138E-05 -8.1277E-05 -3.2552E-06 -2.7363E-07                                                                                                                                                                                                                                                                                                                                                                                                                                                                                                                                                                                                                                                        
       2.5000       0.5000      -5.5000   85.009  0.30004  4.45182E-05  1.10000E-10  1.0000E+00  1.10000E-10  1.0000E+00 -1.5348E-04 -2.4397E-04 -9.7732E-06 -8.2112E-07                                                                                                                                                                                                                                                                                                                                                                                                                                                                                                                                                                                                                                                        
       3.5000       0.5000      -5.5000   85.009  0.10001  1.47664E-05  1.10000E-12  1.0000E+00  1.10000E-12  1.0000E+00 -5.1138E-05 -8.1278E-05 -3.2552E-06 -2.7363E-07                                                                                                                                                                                                                                                                                                                                                                                                                                                                                                                                                                                                                                                        
       4.5000       0.5000      -5.5000   85.009  0.10001  1.47679E-05  1.10000E-12  1.0000E+00  1.10000E-12  1.0000E+00 -5.1139E-05 -8.1279E-05 -3.2553E-06 -2.7363E-07                                                                                                                                                                                                                                                                                                                                                                                                                                                                                                                                                                                                                                                        
       0.5000       0.5000      -4.5000   85.009  0.10002  1.81107E-05  1.10000E-17  1.0000E+00  1.10000E-17  1.0000E+00 -5.1196E-05 -8.1367E-05 -3.2590E-06 -2.7397E-07                                                                                                                                                                                                                                                                                                                                                                                                                                                                                                                                                                                                                                                        
       1.5000       0.5000      -4.5000   85.009  0.10002  1.81083E-05  1.10000E-17  1.0000E+00  1.10000E-17  1.0000E+00 -5.1195E-05 -8.1366E-05 -3.2589E-06 -2.7397E-07                                                                                                                                                                                                                                                                                                                                                                                                                                                                                                                                                                                                                                                        
       2.5000       0.5000      -4.5000   85.009  0.30005  5.45186E-05  1.10000E-10  1.0000E+00  1.10000E-10  1.0000E+00 -1.5365E-04 -2.4423E-04 -9.7836E-06 -8.2213E-07                                                                                                                                                                                                                                                                                                                                                                                                                                                                                                                                                                                                                                                        
       3.5000       0.5000      -4.5000   85.009  0.10002  1.81084E-05  1.10000E-17  1.0000E+00  1.10000E-17  1.0000E+00 -5.1195E-05 -8.1366E-05 -3.2589E-06 -2.7397E-07                                                                                                                                                                                                                                                                                                                                                                                                                                                                                                                                                                                                                                                        
       4.5000       0.5000      -4.5000   85.009  0.10002  1.81108E-05  1.10000E-17  1.0000E+00  1.10000E-17  1.0000E+00 -5.1196E-05 -8.1368E-05 -3.2590E-06 -2.7397E-07                                                                                                                                                                                                                                                                                                                                                                                                                                                                                                                                                                                                                                                        
       0.5000       0.5000      -3.5000   85.009  0.10002  2.14392E-05  1.10000E-17  1.0000E+00  1.10000E-17  1.0000E+00 -5.1249E-05 -8.1448E-05 -3.2623E-06 -2.7430E-07                                                                                                                                                                                                                                                                                                                                                                                                                                                                                                                                                                                                                                                        
       1.5000       0.5000      -3.5000   85.009  0.10002  2.14372E-05  1.10000E-17  1.0000E+00  1.10000E-17  1.0000E+00 -5.1248E-05 -8.1447E-05 -3.2622E-06 -2.7430E-07                                                                                                                                                                                                                                                                                                                                                                                                                                                                                                                                                                                                                                                        
       2.5000       0.5000      -3.5000   85.009  0.30006  6.44494E-05  1.10000E-10  1.0000E+00  1.10000E-10  1.0000E+00 -1.5379E-04 -2.4444E-04 -9.7919E-06 -8.2306E-07                                                                                                                                                                                                                                                                                                                                                                                                                                                                                                                                                                                                                                                        
       3.5000       0.5000      -3.5000   85.009  0.10002  2.14373E-05  1.10000E-17  1.0000E+00  1.10000E-17  1.0000E+00 -5.1248E-05 -8.1447E-05 -3.2622E-06 -2.7430E-07                                                                                                                                                                                                                                                                                                                                                                                                                                                                                                                                                                                                                                                        
       4.5000       0.5000      -3.5000   85.009  0.10002  2.14394E-05  1.10000E-17  1.0000E+00  1.10000E-17  1.0000E+00 -5.1249E-05 -8.1449E-05 -3.2623E-06 -2.7430E-07                                                                                                                                                                                                                                                                                                                                                                                                                                                                                                                                                                                                                                                        