Title="TOUGHREACT V3.30-OMP: Mineral Abundances(Total or Changes) and/or Exchanged Species: Change in volume fraction"                                                                                                                                                                                                                                                                                                                                                                                                                                                                                                                                                                                                                                                                                                          
Variables= "X(m)"   "Y(m)"   "Z(m)"       "T(C)"   "Porosity"  "Poros_Chg" "Permx(m^2)"     "Kx/Kx0" "Permz(m^2)"     "Kz/Kz0" "quartz(alpha"     "dolomite"    "kaolinite"       "barite"                                                                                                                                                                                                                                                                                                                                                                                                                                                                                                                                                                                                                                      
Zone T= "3.16887907E+01 yr" I=      5J=      5K=     10F=Point 
       0.5000       0.5000      -9.5000   85.009  0.10000  1.35930E-06  1.10000E-12  1.0000E+00  1.10000E-12  1.0000E+00 -5.0979E-05 -8.0981E-05 -3.2172E-06 -2.7176E-07                                                                                                                                                                                                                                                                                                                                                                                                                                                                                                                                                                                                                                                        
       1.5000       0.5000      -9.5000   85.009  0.10000  1.36353E-06  1.10000E-12  1.0000E+00  1.10000E-12  1.0000E+00 -5.0979E-05 -8.0981E-05 -3.2172E-06 -2.7176E-07                                                                                                                                                                                                                                                                                                                                                                                                                                                                                                                                                                                                                                                        
       2.5000       0.5000      -9.5000   85.009  0.30000  4.07054E-06  1.10000E-10  1.0000E+00  1.10000E-10  1.0000E+00 -1.5292E-04 -2.4290E-04 -9.6495E-06 -8.1521E-07                                                                                                                                                                                                                                                                                                                                                                                                                                                                                                                                                                                                                                                        
       3.5000       0.5000      -9.5000   85.009  0.10000  1.36292E-06  1.10000E-12  1.0000E+00  1.10000E-12  1.0000E+00 -5.0978E-05 -8.0980E-05 -3.2172E-06 -2.7175E-07                                                                                                                                                                                                                                                                                                                                                                                                                                                                                                                                                                                                                                                        
       4.5000       0.5000      -9.5000   85.009  0.10000  1.35939E-06  1.10000E-12  1.0000E+00  1.10000E-12  1.0000E+00 -5.0979E-05 -8.0981E-05 -3.2172E-06 -2.7176E-07                                                                                                                                                                                                                                                                                                                                                                                                                                                                                                                                                                                                                                                        
       0.5000       0.5000      -8.5000   85.009  0.10000  4.77056E-06  1.10000E-12  1.0000E+00  1.10000E-12  1.0000E+00 -5.1057E-05 -8.1113E-05 -3.2235E-06 -2.7217E-07                                                                                                                                                                                                                                                                                                                                                                                                                                                                                                                                                                                                                                                        
       1.5000       0.5000      -8.5000   85.009  0.10000  4.76390E-06  1.10000E-12  1.0000E+00  1.10000E-12  1.0000E+00 -5.1054E-05 -8.1107E-05 -3.2232E-06 -2.7216E-07                                                                                                                                                                                                                                                                                                                                                                                                                                                                                                                                                                                                                                                        
       2.5000       0.5000      -8.5000   85.009  0.30001  1.41526E-05  1.10000E-10  1.0000E+00  1.10000E-10  1.0000E+00 -1.5311E-04 -2.4321E-04 -9.6637E-06 -8.1632E-07                                                                                                                                                                                                                                                                                                                                                                                                                                                                                                                                                                                                                                                        
       3.5000       0.5000      -8.5000   85.009  0.10000  4.76386E-06  1.10000E-12  1.0000E+00  1.10000E-12  1.0000E+00 -5.1054E-05 -8.1107E-05 -3.2232E-06 -2.7216E-07                                                                                                                                                                                                                                                                                                                                                                                                                                                                                                                                                                                                                                                        
       4.5000       0.5000      -8.5000   85.009  0.10000  4.77063E-06  1.10000E-12  1.0000E+00  1.10000E-12  1.0000E+00 -5.1057E-05 -8.1113E-05 -3.2236E-06 -2.7218E-07                                                                                                                                                                                                                                                                                                                                                                                                                                                                                                                                                                                                                                                        
       0.5000       0.5000      -7.5000   85.009  0.10001  8.15305E-06  1.10000E-12  1.0000E+00  1.10000E-12  1.0000E+00 -5.1126E-05 -8.1227E-05 -3.2286E-06 -2.7256E-07                                                                                                                                                                                                                                                                                                                                                                                                                                                                                                                                                                                                                                                        
       1.5000       0.5000      -7.5000   85.009  0.10001  8.14172E-06  1.10000E-12  1.0000E+00  1.10000E-12  1.0000E+00 -5.1122E-05 -8.1218E-05 -3.2281E-06 -2.7255E-07                                                                                                                                                                                                                                                                                                                                                                                                                                                                                                                                                                                                                                                        
       2.5000       0.5000      -7.5000   85.009  0.30002  2.42992E-05  1.10000E-10  1.0000E+00  1.10000E-10  1.0000E+00 -1.5332E-04 -2.4356E-04 -9.6793E-06 -8.1749E-07                                                                                                                                                                                                                                                                                                                                                                                                                                                                                                                                                                                                                                                        
       3.5000       0.5000      -7.5000   85.009  0.10001  8.14179E-06  1.10000E-12  1.0000E+00  1.10000E-12  1.0000E+00 -5.1122E-05 -8.1218E-05 -3.2281E-06 -2.7255E-07                                                                                                                                                                                                                                                                                                                                                                                                                                                                                                                                                                                                                                                        
       4.5000       0.5000      -7.5000   85.009  0.10001  8.15327E-06  1.10000E-12  1.0000E+00  1.10000E-12  1.0000E+00 -5.1126E-05 -8.1227E-05 -3.2286E-06 -2.7256E-07                                                                                                                                                                                                                                                                                                                                                                                                                                                                                                                                                                                                                                                        
       0.5000       0.5000      -6.5000   85.009  0.10001  1.15033E-05  1.10000E-12  1.0000E+00  1.10000E-12  1.0000E+00 -5.1186E-05 -8.1320E-05 -3.2325E-06 -2.7291E-07                                                                                                                                                                                                                                                                                                                                                                                                                                                                                                                                                                                                                                                        
       1.5000       0.5000      -6.5000   85.009  0.10001  1.14950E-05  1.10000E-12  1.0000E+00  1.10000E-12  1.0000E+00 -5.1183E-05 -8.1313E-05 -3.2322E-06 -2.7290E-07                                                                                                                                                                                                                                                                                                                                                                                                                                                                                                                                                                                                                                                        
       2.5000       0.5000      -6.5000   85.009  0.30003  3.45474E-05  1.10000E-10  1.0000E+00  1.10000E-10  1.0000E+00 -1.5357E-04 -2.4398E-04 -9.6984E-06 -8.1876E-07                                                                                                                                                                                                                                                                                                                                                                                                                                                                                                                                                                                                                                                        
       3.5000       0.5000      -6.5000   85.009  0.10001  1.14953E-05  1.10000E-12  1.0000E+00  1.10000E-12  1.0000E+00 -5.1183E-05 -8.1314E-05 -3.2322E-06 -2.7290E-07                                                                                                                                                                                                                                                                                                                                                                                                                                                                                                                                                                                                                                                        
       4.5000       0.5000      -6.5000   85.009  0.10001  1.15034E-05  1.10000E-12  1.0000E+00  1.10000E-12  1.0000E+00 -5.1186E-05 -8.1320E-05 -3.2325E-06 -2.7291E-07                                                                                                                                                                                                                                                                                                                                                                                                                                                                                                                                                                                                                                                        
       0.5000       0.5000      -5.5000   85.009  0.10001  1.48301E-05  1.10000E-12  1.0000E+00  1.10000E-12  1.0000E+00 -5.1238E-05 -8.1399E-05 -3.2357E-06 -2.7324E-07                                                                                                                                                                                                                                                                                                                                                                                                                                                                                                                                                                                                                                                        
       1.5000       0.5000      -5.5000   85.009  0.10001  1.48281E-05  1.10000E-12  1.0000E+00  1.10000E-12  1.0000E+00 -5.1238E-05 -8.1397E-05 -3.2356E-06 -2.7324E-07                                                                                                                                                                                                                                                                                                                                                                                                                                                                                                                                                                                                                                                        
       2.5000       0.5000      -5.5000   85.009  0.30004  4.47050E-05  1.10000E-10  1.0000E+00  1.10000E-10  1.0000E+00 -1.5378E-04 -2.4433E-04 -9.7144E-06 -8.1994E-07                                                                                                                                                                                                                                                                                                                                                                                                                                                                                                                                                                                                                                                        
       3.5000       0.5000      -5.5000   85.009  0.10001  1.48288E-05  1.10000E-12  1.0000E+00  1.10000E-12  1.0000E+00 -5.1238E-05 -8.1398E-05 -3.2356E-06 -2.7324E-07                                                                                                                                                                                                                                                                                                                                                                                                                                                                                                                                                                                                                                                        
       4.5000       0.5000      -5.5000   85.009  0.10001  1.48301E-05  1.10000E-12  1.0000E+00  1.10000E-12  1.0000E+00 -5.1238E-05 -8.1399E-05 -3.2357E-06 -2.7324E-07                                                                                                                                                                                                                                                                                                                                                                                                                                                                                                                                                                                                                                                        
       0.5000       0.5000      -4.5000   85.009  0.10002  1.81730E-05  1.10000E-17  1.0000E+00  1.10000E-17  1.0000E+00 -5.1295E-05 -8.1487E-05 -3.2394E-06 -2.7358E-07                                                                                                                                                                                                                                                                                                                                                                                                                                                                                                                                                                                                                                                        
       1.5000       0.5000      -4.5000   85.009  0.10002  1.81707E-05  1.10000E-17  1.0000E+00  1.10000E-17  1.0000E+00 -5.1295E-05 -8.1486E-05 -3.2393E-06 -2.7358E-07                                                                                                                                                                                                                                                                                                                                                                                                                                                                                                                                                                                                                                                        
       2.5000       0.5000      -4.5000   85.009  0.30005  5.47054E-05  1.10000E-10  1.0000E+00  1.10000E-10  1.0000E+00 -1.5395E-04 -2.4459E-04 -9.7248E-06 -8.2095E-07                                                                                                                                                                                                                                                                                                                                                                                                                                                                                                                                                                                                                                                        
       3.5000       0.5000      -4.5000   85.009  0.10002  1.81708E-05  1.10000E-17  1.0000E+00  1.10000E-17  1.0000E+00 -5.1295E-05 -8.1486E-05 -3.2393E-06 -2.7358E-07                                                                                                                                                                                                                                                                                                                                                                                                                                                                                                                                                                                                                                                        
       4.5000       0.5000      -4.5000   85.009  0.10002  1.81730E-05  1.10000E-17  1.0000E+00  1.10000E-17  1.0000E+00 -5.1295E-05 -8.1487E-05 -3.2394E-06 -2.7358E-07                                                                                                                                                                                                                                                                                                                                                                                                                                                                                                                                                                                                                                                        
       0.5000       0.5000      -3.5000   85.009  0.10002  2.15015E-05  1.10000E-17  1.0000E+00  1.10000E-17  1.0000E+00 -5.1349E-05 -8.1568E-05 -3.2427E-06 -2.7391E-07                                                                                                                                                                                                                                                                                                                                                                                                                                                                                                                                                                                                                                                        
       1.5000       0.5000      -3.5000   85.009  0.10002  2.14996E-05  1.10000E-17  1.0000E+00  1.10000E-17  1.0000E+00 -5.1348E-05 -8.1567E-05 -3.2427E-06 -2.7390E-07                                                                                                                                                                                                                                                                                                                                                                                                                                                                                                                                                                                                                                                        
       2.5000       0.5000      -3.5000   85.009  0.30006  6.46362E-05  1.10000E-10  1.0000E+00  1.10000E-10  1.0000E+00 -1.5409E-04 -2.4480E-04 -9.7331E-06 -8.2188E-07                                                                                                                                                                                                                                                                                                                                                                                                                                                                                                                                                                                                                                                        
       3.5000       0.5000      -3.5000   85.009  0.10002  2.14997E-05  1.10000E-17  1.0000E+00  1.10000E-17  1.0000E+00 -5.1348E-05 -8.1567E-05 -3.2427E-06 -2.7390E-07                                                                                                                                                                                                                                                                                                                                                                                                                                                                                                                                                                                                                                                        
       4.5000       0.5000      -3.5000   85.009  0.10002  2.15015E-05  1.10000E-17  1.0000E+00  1.10000E-17  1.0000E+00 -5.1349E-05 -8.1568E-05 -3.2427E-06 -2.7391E-07                                                                                                                                                                                                                                                                                                                                                                                                                                                                                                                                                                                                                                                        