Title="TOUGHREACT V3.30-OMP: Mineral Abundances(Total or Changes) and/or Exchanged Species: Change in volume fraction"                                                                                                                                                                                                                                                                                                                                                                                                                                                                                                                                                                                                                                                                                                          
Variables= "X(m)"   "Y(m)"   "Z(m)"       "T(C)"   "Porosity"  "Poros_Chg" "Permx(m^2)"     "Kx/Kx0" "Permz(m^2)"     "Kz/Kz0" "quartz(alpha"     "dolomite"    "kaolinite"       "barite"                                                                                                                                                                                                                                                                                                                                                                                                                                                                                                                                                                                                                                      
Zone T= "3.16887907E+02 yr" I=      5J=      5K=     10F=Point 
       0.5000       0.5000      -9.5000   85.009  0.10000  1.43608E-06  1.10000E-12  1.0000E+00  1.10000E-12  1.0000E+00 -5.1003E-05 -8.1026E-05 -3.2188E-06 -2.7181E-07                                                                                                                                                                                                                                                                                                                                                                                                                                                                                                                                                                                                                                                        
       1.5000       0.5000      -9.5000   85.009  0.10000  1.44030E-06  1.10000E-12  1.0000E+00  1.10000E-12  1.0000E+00 -5.1003E-05 -8.1025E-05 -3.2187E-06 -2.7181E-07                                                                                                                                                                                                                                                                                                                                                                                                                                                                                                                                                                                                                                                        
       2.5000       0.5000      -9.5000   85.009  0.30000  4.30089E-06  1.10000E-10  1.0000E+00  1.10000E-10  1.0000E+00 -1.5299E-04 -2.4304E-04 -9.6541E-06 -8.1539E-07                                                                                                                                                                                                                                                                                                                                                                                                                                                                                                                                                                                                                                                        
       3.5000       0.5000      -9.5000   85.009  0.10000  1.43969E-06  1.10000E-12  1.0000E+00  1.10000E-12  1.0000E+00 -5.1003E-05 -8.1025E-05 -3.2187E-06 -2.7181E-07                                                                                                                                                                                                                                                                                                                                                                                                                                                                                                                                                                                                                                                        
       4.5000       0.5000      -9.5000   85.009  0.10000  1.43617E-06  1.10000E-12  1.0000E+00  1.10000E-12  1.0000E+00 -5.1003E-05 -8.1026E-05 -3.2188E-06 -2.7181E-07                                                                                                                                                                                                                                                                                                                                                                                                                                                                                                                                                                                                                                                        
       0.5000       0.5000      -8.5000   85.009  0.10000  4.76786E-06  1.10000E-12  1.0000E+00  1.10000E-12  1.0000E+00 -5.1052E-05 -8.1108E-05 -3.2244E-06 -2.7219E-07                                                                                                                                                                                                                                                                                                                                                                                                                                                                                                                                                                                                                                                        
       1.5000       0.5000      -8.5000   85.009  0.10000  4.76119E-06  1.10000E-12  1.0000E+00  1.10000E-12  1.0000E+00 -5.1049E-05 -8.1101E-05 -3.2241E-06 -2.7218E-07                                                                                                                                                                                                                                                                                                                                                                                                                                                                                                                                                                                                                                                        
       2.5000       0.5000      -8.5000   85.009  0.30001  1.41446E-05  1.10000E-10  1.0000E+00  1.10000E-10  1.0000E+00 -1.5310E-04 -2.4320E-04 -9.6664E-06 -8.1637E-07                                                                                                                                                                                                                                                                                                                                                                                                                                                                                                                                                                                                                                                        
       3.5000       0.5000      -8.5000   85.009  0.10000  4.76116E-06  1.10000E-12  1.0000E+00  1.10000E-12  1.0000E+00 -5.1049E-05 -8.1101E-05 -3.2241E-06 -2.7218E-07                                                                                                                                                                                                                                                                                                                                                                                                                                                                                                                                                                                                                                                        
       4.5000       0.5000      -8.5000   85.009  0.10000  4.76795E-06  1.10000E-12  1.0000E+00  1.10000E-12  1.0000E+00 -5.1052E-05 -8.1108E-05 -3.2244E-06 -2.7219E-07                                                                                                                                                                                                                                                                                                                                                                                                                                                                                                                                                                                                                                                        
       0.5000       0.5000      -7.5000   85.009  0.10001  8.15023E-06  1.10000E-12  1.0000E+00  1.10000E-12  1.0000E+00 -5.1122E-05 -8.1221E-05 -3.2295E-06 -2.7258E-07                                                                                                                                                                                                                                                                                                                                                                                                                                                                                                                                                                                                                                                        
       1.5000       0.5000      -7.5000   85.009  0.10001  8.13889E-06  1.10000E-12  1.0000E+00  1.10000E-12  1.0000E+00 -5.1117E-05 -8.1212E-05 -3.2290E-06 -2.7256E-07                                                                                                                                                                                                                                                                                                                                                                                                                                                                                                                                                                                                                                                        
       2.5000       0.5000      -7.5000   85.009  0.30002  2.42908E-05  1.10000E-10  1.0000E+00  1.10000E-10  1.0000E+00 -1.5331E-04 -2.4355E-04 -9.6820E-06 -8.1754E-07                                                                                                                                                                                                                                                                                                                                                                                                                                                                                                                                                                                                                                                        
       3.5000       0.5000      -7.5000   85.009  0.10001  8.13896E-06  1.10000E-12  1.0000E+00  1.10000E-12  1.0000E+00 -5.1117E-05 -8.1212E-05 -3.2290E-06 -2.7256E-07                                                                                                                                                                                                                                                                                                                                                                                                                                                                                                                                                                                                                                                        
       4.5000       0.5000      -7.5000   85.009  0.10001  8.15046E-06  1.10000E-12  1.0000E+00  1.10000E-12  1.0000E+00 -5.1122E-05 -8.1221E-05 -3.2295E-06 -2.7258E-07                                                                                                                                                                                                                                                                                                                                                                                                                                                                                                                                                                                                                                                        
       0.5000       0.5000      -6.5000   85.009  0.10001  1.15004E-05  1.10000E-12  1.0000E+00  1.10000E-12  1.0000E+00 -5.1181E-05 -8.1314E-05 -3.2334E-06 -2.7293E-07                                                                                                                                                                                                                                                                                                                                                                                                                                                                                                                                                                                                                                                        
       1.5000       0.5000      -6.5000   85.009  0.10001  1.14921E-05  1.10000E-12  1.0000E+00  1.10000E-12  1.0000E+00 -5.1178E-05 -8.1308E-05 -3.2331E-06 -2.7292E-07                                                                                                                                                                                                                                                                                                                                                                                                                                                                                                                                                                                                                                                        
       2.5000       0.5000      -6.5000   85.009  0.30003  3.45390E-05  1.10000E-10  1.0000E+00  1.10000E-10  1.0000E+00 -1.5355E-04 -2.4396E-04 -9.7011E-06 -8.1882E-07                                                                                                                                                                                                                                                                                                                                                                                                                                                                                                                                                                                                                                                        
       3.5000       0.5000      -6.5000   85.009  0.10001  1.14925E-05  1.10000E-12  1.0000E+00  1.10000E-12  1.0000E+00 -5.1178E-05 -8.1308E-05 -3.2331E-06 -2.7292E-07                                                                                                                                                                                                                                                                                                                                                                                                                                                                                                                                                                                                                                                        
       4.5000       0.5000      -6.5000   85.009  0.10001  1.15006E-05  1.10000E-12  1.0000E+00  1.10000E-12  1.0000E+00 -5.1181E-05 -8.1314E-05 -3.2334E-06 -2.7293E-07                                                                                                                                                                                                                                                                                                                                                                                                                                                                                                                                                                                                                                                        
       0.5000       0.5000      -5.5000   85.009  0.10001  1.48273E-05  1.10000E-12  1.0000E+00  1.10000E-12  1.0000E+00 -5.1234E-05 -8.1393E-05 -3.2366E-06 -2.7326E-07                                                                                                                                                                                                                                                                                                                                                                                                                                                                                                                                                                                                                                                        
       1.5000       0.5000      -5.5000   85.009  0.10001  1.48253E-05  1.10000E-12  1.0000E+00  1.10000E-12  1.0000E+00 -5.1233E-05 -8.1392E-05 -3.2365E-06 -2.7325E-07                                                                                                                                                                                                                                                                                                                                                                                                                                                                                                                                                                                                                                                        
       2.5000       0.5000      -5.5000   85.009  0.30004  4.46965E-05  1.10000E-10  1.0000E+00  1.10000E-10  1.0000E+00 -1.5377E-04 -2.4432E-04 -9.7171E-06 -8.1999E-07                                                                                                                                                                                                                                                                                                                                                                                                                                                                                                                                                                                                                                                        
       3.5000       0.5000      -5.5000   85.009  0.10001  1.48260E-05  1.10000E-12  1.0000E+00  1.10000E-12  1.0000E+00 -5.1233E-05 -8.1392E-05 -3.2365E-06 -2.7325E-07                                                                                                                                                                                                                                                                                                                                                                                                                                                                                                                                                                                                                                                        
       4.5000       0.5000      -5.5000   85.009  0.10001  1.48273E-05  1.10000E-12  1.0000E+00  1.10000E-12  1.0000E+00 -5.1234E-05 -8.1393E-05 -3.2366E-06 -2.7326E-07                                                                                                                                                                                                                                                                                                                                                                                                                                                                                                                                                                                                                                                        
       0.5000       0.5000      -4.5000   85.009  0.10002  1.81702E-05  1.10000E-17  1.0000E+00  1.10000E-17  1.0000E+00 -5.1291E-05 -8.1482E-05 -3.2403E-06 -2.7360E-07                                                                                                                                                                                                                                                                                                                                                                                                                                                                                                                                                                                                                                                        
       1.5000       0.5000      -4.5000   85.009  0.10002  1.81679E-05  1.10000E-17  1.0000E+00  1.10000E-17  1.0000E+00 -5.1290E-05 -8.1480E-05 -3.2402E-06 -2.7359E-07                                                                                                                                                                                                                                                                                                                                                                                                                                                                                                                                                                                                                                                        
       2.5000       0.5000      -4.5000   85.009  0.30005  5.46970E-05  1.10000E-10  1.0000E+00  1.10000E-10  1.0000E+00 -1.5393E-04 -2.4457E-04 -9.7275E-06 -8.2100E-07                                                                                                                                                                                                                                                                                                                                                                                                                                                                                                                                                                                                                                                        
       3.5000       0.5000      -4.5000   85.009  0.10002  1.81679E-05  1.10000E-17  1.0000E+00  1.10000E-17  1.0000E+00 -5.1290E-05 -8.1480E-05 -3.2402E-06 -2.7359E-07                                                                                                                                                                                                                                                                                                                                                                                                                                                                                                                                                                                                                                                        
       4.5000       0.5000      -4.5000   85.009  0.10002  1.81702E-05  1.10000E-17  1.0000E+00  1.10000E-17  1.0000E+00 -5.1291E-05 -8.1482E-05 -3.2403E-06 -2.7360E-07                                                                                                                                                                                                                                                                                                                                                                                                                                                                                                                                                                                                                                                        
       0.5000       0.5000      -3.5000   85.009  0.10002  2.14987E-05  1.10000E-17  1.0000E+00  1.10000E-17  1.0000E+00 -5.1344E-05 -8.1563E-05 -3.2436E-06 -2.7392E-07                                                                                                                                                                                                                                                                                                                                                                                                                                                                                                                                                                                                                                                        
       1.5000       0.5000      -3.5000   85.009  0.10002  2.14968E-05  1.10000E-17  1.0000E+00  1.10000E-17  1.0000E+00 -5.1344E-05 -8.1562E-05 -3.2435E-06 -2.7392E-07                                                                                                                                                                                                                                                                                                                                                                                                                                                                                                                                                                                                                                                        
       2.5000       0.5000      -3.5000   85.009  0.30006  6.46277E-05  1.10000E-10  1.0000E+00  1.10000E-10  1.0000E+00 -1.5408E-04 -2.4478E-04 -9.7358E-06 -8.2193E-07                                                                                                                                                                                                                                                                                                                                                                                                                                                                                                                                                                                                                                                        
       3.5000       0.5000      -3.5000   85.009  0.10002  2.14969E-05  1.10000E-17  1.0000E+00  1.10000E-17  1.0000E+00 -5.1344E-05 -8.1562E-05 -3.2436E-06 -2.7392E-07                                                                                                                                                                                                                                                                                                                                                                                                                                                                                                                                                                                                                                                        
       4.5000       0.5000      -3.5000   85.009  0.10002  2.14987E-05  1.10000E-17  1.0000E+00  1.10000E-17  1.0000E+00 -5.1344E-05 -8.1563E-05 -3.2436E-06 -2.7392E-07                                                                                                                                                                                                                                                                                                                                                                                                                                                                                                                                                                                                                                                        