Title="TOUGHREACT V3.30-OMP: Mineral Abundances(Total or Changes) and/or Exchanged Species: Change in volume fraction"                                                                                                                                                                                                                                                                                                                                                                                                                                                                                                                                                                                                                                                                                                          
Variables= "X(m)"   "Y(m)"   "Z(m)"       "T(C)"   "Porosity"  "Poros_Chg" "Permx(m^2)"     "Kx/Kx0" "Permz(m^2)"     "Kz/Kz0" "quartz(alpha"     "dolomite"    "kaolinite"       "barite"                                                                                                                                                                                                                                                                                                                                                                                                                                                                                                                                                                                                                                      
Zone T= "3.16887907E-01 yr" I=      5J=      5K=     10F=Point 
       0.5000       0.5000      -9.5000   85.856  0.10001  9.29978E-06  1.10000E-12  1.0000E+00  1.10000E-12  1.0000E+00 -5.2701E-05 -8.4522E-05 -3.4090E-06 -2.7760E-07                                                                                                                                                                                                                                                                                                                                                                                                                                                                                                                                                                                                                                                        
       1.5000       0.5000      -9.5000   85.858  0.10001  9.32235E-06  1.10000E-12  1.0000E+00  1.10000E-12  1.0000E+00 -5.2705E-05 -8.4530E-05 -3.4094E-06 -2.7761E-07                                                                                                                                                                                                                                                                                                                                                                                                                                                                                                                                                                                                                                                        
       2.5000       0.5000      -9.5000   85.862  0.30003  2.80553E-05  1.10000E-10  1.0000E+00  1.10000E-10  1.0000E+00 -1.5812E-04 -2.5360E-04 -1.0229E-05 -8.3287E-07                                                                                                                                                                                                                                                                                                                                                                                                                                                                                                                                                                                                                                                        
       3.5000       0.5000      -9.5000   85.858  0.10001  9.32175E-06  1.10000E-12  1.0000E+00  1.10000E-12  1.0000E+00 -5.2704E-05 -8.4529E-05 -3.4094E-06 -2.7761E-07                                                                                                                                                                                                                                                                                                                                                                                                                                                                                                                                                                                                                                                        
       4.5000       0.5000      -9.5000   85.856  0.10001  9.29986E-06  1.10000E-12  1.0000E+00  1.10000E-12  1.0000E+00 -5.2701E-05 -8.4522E-05 -3.4090E-06 -2.7760E-07                                                                                                                                                                                                                                                                                                                                                                                                                                                                                                                                                                                                                                                        
       0.5000       0.5000      -8.5000   85.773  0.10001  1.19226E-05  1.10000E-12  1.0000E+00  1.10000E-12  1.0000E+00 -5.2609E-05 -8.4303E-05 -3.3960E-06 -2.7744E-07                                                                                                                                                                                                                                                                                                                                                                                                                                                                                                                                                                                                                                                        
       1.5000       0.5000      -8.5000   85.775  0.10001  1.19329E-05  1.10000E-12  1.0000E+00  1.10000E-12  1.0000E+00 -5.2609E-05 -8.4304E-05 -3.3960E-06 -2.7744E-07                                                                                                                                                                                                                                                                                                                                                                                                                                                                                                                                                                                                                                                        
       2.5000       0.5000      -8.5000   85.778  0.30004  3.57685E-05  1.10000E-10  1.0000E+00  1.10000E-10  1.0000E+00 -1.5780E-04 -2.5286E-04 -1.0185E-05 -8.3224E-07                                                                                                                                                                                                                                                                                                                                                                                                                                                                                                                                                                                                                                                        
       3.5000       0.5000      -8.5000   85.775  0.10001  1.19329E-05  1.10000E-12  1.0000E+00  1.10000E-12  1.0000E+00 -5.2609E-05 -8.4304E-05 -3.3960E-06 -2.7744E-07                                                                                                                                                                                                                                                                                                                                                                                                                                                                                                                                                                                                                                                        
       4.5000       0.5000      -8.5000   85.773  0.10001  1.19227E-05  1.10000E-12  1.0000E+00  1.10000E-12  1.0000E+00 -5.2609E-05 -8.4303E-05 -3.3960E-06 -2.7744E-07                                                                                                                                                                                                                                                                                                                                                                                                                                                                                                                                                                                                                                                        
       0.5000       0.5000      -7.5000   85.615  0.10001  1.37989E-05  1.10000E-12  1.0000E+00  1.10000E-12  1.0000E+00 -5.2353E-05 -8.3745E-05 -3.3645E-06 -2.7672E-07                                                                                                                                                                                                                                                                                                                                                                                                                                                                                                                                                                                                                                                        
       1.5000       0.5000      -7.5000   85.617  0.10001  1.38012E-05  1.10000E-12  1.0000E+00  1.10000E-12  1.0000E+00 -5.2351E-05 -8.3742E-05 -3.3644E-06 -2.7672E-07                                                                                                                                                                                                                                                                                                                                                                                                                                                                                                                                                                                                                                                        
       2.5000       0.5000      -7.5000   85.620  0.30004  4.13673E-05  1.10000E-10  1.0000E+00  1.10000E-10  1.0000E+00 -1.5703E-04 -2.5118E-04 -1.0090E-05 -8.3008E-07                                                                                                                                                                                                                                                                                                                                                                                                                                                                                                                                                                                                                                                        
       3.5000       0.5000      -7.5000   85.617  0.10001  1.38013E-05  1.10000E-12  1.0000E+00  1.10000E-12  1.0000E+00 -5.2351E-05 -8.3743E-05 -3.3644E-06 -2.7672E-07                                                                                                                                                                                                                                                                                                                                                                                                                                                                                                                                                                                                                                                        
       4.5000       0.5000      -7.5000   85.615  0.10001  1.37991E-05  1.10000E-12  1.0000E+00  1.10000E-12  1.0000E+00 -5.2353E-05 -8.3745E-05 -3.3645E-06 -2.7672E-07                                                                                                                                                                                                                                                                                                                                                                                                                                                                                                                                                                                                                                                        
       0.5000       0.5000      -6.5000   85.398  0.10002  1.50930E-05  1.10000E-12  1.0000E+00  1.10000E-12  1.0000E+00 -5.1969E-05 -8.2926E-05 -3.3191E-06 -2.7557E-07                                                                                                                                                                                                                                                                                                                                                                                                                                                                                                                                                                                                                                                        
       1.5000       0.5000      -6.5000   85.399  0.10002  1.50935E-05  1.10000E-12  1.0000E+00  1.10000E-12  1.0000E+00 -5.1968E-05 -8.2924E-05 -3.3189E-06 -2.7557E-07                                                                                                                                                                                                                                                                                                                                                                                                                                                                                                                                                                                                                                                        
       2.5000       0.5000      -6.5000   85.401  0.30005  4.53922E-05  1.10000E-10  1.0000E+00  1.10000E-10  1.0000E+00 -1.5593E-04 -2.4883E-04 -9.9599E-06 -8.2681E-07                                                                                                                                                                                                                                                                                                                                                                                                                                                                                                                                                                                                                                                        
       3.5000       0.5000      -6.5000   85.399  0.10002  1.50939E-05  1.10000E-12  1.0000E+00  1.10000E-12  1.0000E+00 -5.1968E-05 -8.2924E-05 -3.3190E-06 -2.7557E-07                                                                                                                                                                                                                                                                                                                                                                                                                                                                                                                                                                                                                                                        
       4.5000       0.5000      -6.5000   85.398  0.10002  1.50931E-05  1.10000E-12  1.0000E+00  1.10000E-12  1.0000E+00 -5.1969E-05 -8.2926E-05 -3.3191E-06 -2.7557E-07                                                                                                                                                                                                                                                                                                                                                                                                                                                                                                                                                                                                                                                        
       0.5000       0.5000      -5.5000   85.143  0.10002  1.60253E-05  1.10000E-12  1.0000E+00  1.10000E-12  1.0000E+00 -5.1507E-05 -8.1949E-05 -3.2652E-06 -2.7415E-07                                                                                                                                                                                                                                                                                                                                                                                                                                                                                                                                                                                                                                                        
       1.5000       0.5000      -5.5000   85.144  0.10002  1.60262E-05  1.10000E-12  1.0000E+00  1.10000E-12  1.0000E+00 -5.1507E-05 -8.1949E-05 -3.2652E-06 -2.7415E-07                                                                                                                                                                                                                                                                                                                                                                                                                                                                                                                                                                                                                                                        
       2.5000       0.5000      -5.5000   85.144  0.30005  4.83030E-05  1.10000E-10  1.0000E+00  1.10000E-10  1.0000E+00 -1.5459E-04 -2.4599E-04 -9.8031E-06 -8.2268E-07                                                                                                                                                                                                                                                                                                                                                                                                                                                                                                                                                                                                                                                        
       3.5000       0.5000      -5.5000   85.144  0.10002  1.60268E-05  1.10000E-12  1.0000E+00  1.10000E-12  1.0000E+00 -5.1507E-05 -8.1949E-05 -3.2652E-06 -2.7415E-07                                                                                                                                                                                                                                                                                                                                                                                                                                                                                                                                                                                                                                                        
       4.5000       0.5000      -5.5000   85.143  0.10002  1.60253E-05  1.10000E-12  1.0000E+00  1.10000E-12  1.0000E+00 -5.1507E-05 -8.1949E-05 -3.2652E-06 -2.7415E-07                                                                                                                                                                                                                                                                                                                                                                                                                                                                                                                                                                                                                                                        
       0.5000       0.5000      -4.5000   84.875  0.10002  1.68946E-05  1.10000E-17  1.0000E+00  1.10000E-17  1.0000E+00 -5.1029E-05 -8.0942E-05 -3.2100E-06 -2.7267E-07                                                                                                                                                                                                                                                                                                                                                                                                                                                                                                                                                                                                                                                        
       1.5000       0.5000      -4.5000   84.875  0.10002  1.68788E-05  1.10000E-17  1.0000E+00  1.10000E-17  1.0000E+00 -5.1028E-05 -8.0939E-05 -3.2098E-06 -2.7266E-07                                                                                                                                                                                                                                                                                                                                                                                                                                                                                                                                                                                                                                                        
       2.5000       0.5000      -4.5000   84.874  0.30005  5.07689E-05  1.10000E-10  1.0000E+00  1.10000E-10  1.0000E+00 -1.5314E-04 -2.4293E-04 -9.6356E-06 -8.1819E-07                                                                                                                                                                                                                                                                                                                                                                                                                                                                                                                                                                                                                                                        
       3.5000       0.5000      -4.5000   84.875  0.10002  1.68789E-05  1.10000E-17  1.0000E+00  1.10000E-17  1.0000E+00 -5.1028E-05 -8.0939E-05 -3.2098E-06 -2.7266E-07                                                                                                                                                                                                                                                                                                                                                                                                                                                                                                                                                                                                                                                        
       4.5000       0.5000      -4.5000   84.875  0.10002  1.68946E-05  1.10000E-17  1.0000E+00  1.10000E-17  1.0000E+00 -5.1029E-05 -8.0942E-05 -3.2100E-06 -2.7267E-07                                                                                                                                                                                                                                                                                                                                                                                                                                                                                                                                                                                                                                                        
       0.5000       0.5000      -3.5000   84.620  0.10002  1.79131E-05  1.10000E-17  1.0000E+00  1.10000E-17  1.0000E+00 -5.0580E-05 -7.9996E-05 -3.1583E-06 -2.7127E-07                                                                                                                                                                                                                                                                                                                                                                                                                                                                                                                                                                                                                                                        
       1.5000       0.5000      -3.5000   84.619  0.10002  1.78719E-05  1.10000E-17  1.0000E+00  1.10000E-17  1.0000E+00 -5.0578E-05 -7.9991E-05 -3.1580E-06 -2.7127E-07                                                                                                                                                                                                                                                                                                                                                                                                                                                                                                                                                                                                                                                        
       2.5000       0.5000      -3.5000   84.618  0.30005  5.35993E-05  1.10000E-10  1.0000E+00  1.10000E-10  1.0000E+00 -1.5177E-04 -2.4005E-04 -9.4778E-06 -8.1393E-07                                                                                                                                                                                                                                                                                                                                                                                                                                                                                                                                                                                                                                                        
       3.5000       0.5000      -3.5000   84.619  0.10002  1.78719E-05  1.10000E-17  1.0000E+00  1.10000E-17  1.0000E+00 -5.0578E-05 -7.9991E-05 -3.1580E-06 -2.7127E-07                                                                                                                                                                                                                                                                                                                                                                                                                                                                                                                                                                                                                                                        
       4.5000       0.5000      -3.5000   84.620  0.10002  1.79132E-05  1.10000E-17  1.0000E+00  1.10000E-17  1.0000E+00 -5.0580E-05 -7.9996E-05 -3.1583E-06 -2.7127E-07                                                                                                                                                                                                                                                                                                                                                                                                                                                                                                                                                                                                                                                        