Title="TOUGHREACT V3.30-OMP flowvector.tec: Liq & Gas Fluxes (kg/s/m^2), Pore Velocities (m/s), & Heat Fluxes (J/s/m2)"                                                                                                                                                                                                                                                                                                                                                                                                                                                                                                                                                                                                                                                                                                         
Variables= "X(m)"     "Y(m)"      "Z(m)"     "FluxLiq"   "FluxLiq_X"   "FluxLiq_Y"   "FluxLiq_Z"   "PorVelLiq"  "PorVelLiqX"  "PorVelLiqY"  "PorVelLiqZ"     "FluxGas"   "FluxGas_X"   "FluxGas_Y"   "FluxGas_Z"   "PorVelGas"  "PorVelGasX"  "PorVelGasY"  "PorVelGasZ"    "HeatFlux"  "HeatFlux_X"  "HeatFlux_Y"  "HeatFlux_Z"                                                                                                                                                                                                                                                                                                                                                                                                                                                                                                
Zone T= "1.00000000E+09 sec" I=     9 J=    10 K=    23 F=Point
  1.250000E+02  1.250000E+02 -5.425000E+03  3.712280E-09 -3.545505E-10  2.880865E-10 -3.684064E-09  2.015129E-11 -1.929190E-12  1.567626E-12 -1.999738E-11  0.000000E+00  0.000000E+00  0.000000E+00  0.000000E+00  0.000000E+00  0.000000E+00  0.000000E+00  0.000000E+00  5.853081E-02  5.968935E-04 -5.228075E-05  5.852774E-02                                                                                                                                                                                                                                                                                                                                                                                                                                                                                              
  3.750000E+02  1.250000E+02 -5.425000E+03  3.925676E-09 -8.294323E-10  2.929654E-10 -3.825852E-09  2.130956E-11 -4.512893E-12  1.594048E-12 -2.076512E-11  0.000000E+00  0.000000E+00  0.000000E+00  0.000000E+00  0.000000E+00  0.000000E+00  0.000000E+00  0.000000E+00  5.880303E-02  1.367575E-03 -6.598057E-05  5.878709E-02                                                                                                                                                                                                                                                                                                                                                                                                                                                                                              
  6.250000E+02  1.250000E+02 -5.425000E+03  4.073423E-09 -8.210632E-10  3.004744E-10 -3.978485E-09  2.210882E-11 -4.467013E-12  1.634737E-12 -2.159105E-11  0.000000E+00  0.000000E+00  0.000000E+00  0.000000E+00  0.000000E+00  0.000000E+00  0.000000E+00  0.000000E+00  5.906411E-02  1.315399E-03 -8.662967E-05  5.904940E-02                                                                                                                                                                                                                                                                                                                                                                                                                                                                                              
  8.750000E+02  1.250000E+02 -5.425000E+03  4.107743E-09 -4.071385E-10  3.070809E-10 -4.075965E-09  2.229157E-11 -2.214917E-12  1.670557E-12 -2.211826E-11  0.000000E+00  0.000000E+00  0.000000E+00  0.000000E+00  0.000000E+00  0.000000E+00  0.000000E+00  0.000000E+00  5.921392E-02  6.401540E-04 -1.042474E-04  5.921037E-02                                                                                                                                                                                                                                                                                                                                                                                                                                                                                              
  1.050000E+03  1.250000E+02 -5.425000E+03  4.099802E-09  4.714157E-15  3.079616E-10 -4.088219E-09  2.224771E-11  2.564506E-17  1.675333E-12 -2.218454E-11  0.000000E+00  0.000000E+00  0.000000E+00  0.000000E+00  0.000000E+00  0.000000E+00  0.000000E+00  0.000000E+00  5.923082E-02  3.903445E-09 -1.065968E-04  5.923073E-02                                                                                                                                                                                                                                                                                                                                                                                                                                                                                              
  1.225000E+03  1.250000E+02 -5.425000E+03  4.107744E-09  4.071348E-10  3.070691E-10 -4.075967E-09  2.229158E-11  2.214897E-12  1.670493E-12 -2.211827E-11  0.000000E+00  0.000000E+00  0.000000E+00  0.000000E+00  0.000000E+00  0.000000E+00  0.000000E+00  0.000000E+00  5.921393E-02 -6.401647E-04 -1.042566E-04  5.921038E-02                                                                                                                                                                                                                                                                                                                                                                                                                                                                                              
  1.475000E+03  1.250000E+02 -5.425000E+03  4.073438E-09  8.210618E-10  3.004894E-10 -3.978499E-09  2.210890E-11  4.467005E-12  1.634818E-12 -2.159112E-11  0.000000E+00  0.000000E+00  0.000000E+00  0.000000E+00  0.000000E+00  0.000000E+00  0.000000E+00  0.000000E+00  5.906410E-02 -1.315424E-03 -8.662282E-05  5.904939E-02                                                                                                                                                                                                                                                                                                                                                                                                                                                                                              
  1.725000E+03  1.250000E+02 -5.425000E+03  3.925689E-09  8.294400E-10  2.929631E-10 -3.825864E-09  2.130963E-11  4.512935E-12  1.594036E-12 -2.076518E-11  0.000000E+00  0.000000E+00  0.000000E+00  0.000000E+00  0.000000E+00  0.000000E+00  0.000000E+00  0.000000E+00  5.880303E-02 -1.367586E-03 -6.595936E-05  5.878709E-02                                                                                                                                                                                                                                                                                                                                                                                                                                                                                              
  1.975000E+03  1.250000E+02 -5.425000E+03  3.712290E-09  3.545513E-10  2.880791E-10 -3.684074E-09  2.015134E-11  1.929194E-12  1.567585E-12 -1.999744E-11  0.000000E+00  0.000000E+00  0.000000E+00  0.000000E+00  0.000000E+00  0.000000E+00  0.000000E+00  0.000000E+00  5.853083E-02 -5.968935E-04 -5.227302E-05  5.852776E-02                                                                                                                                                                                                                                                                                                                                                                                                                                                                                              
  1.250000E+02  1.250000E+02 -5.225000E+03  1.313755E-08 -2.812344E-10  2.411311E-10 -1.313232E-08  7.086255E-11 -1.523740E-12  1.306546E-12 -7.083411E-11  0.000000E+00  0.000000E+00  0.000000E+00  0.000000E+00  0.000000E+00  0.000000E+00  0.000000E+00  0.000000E+00  2.100538E-01  9.454711E-04 -1.800435E-04  2.100516E-01                                                                                                                                                                                                                                                                                                                                                                                                                                                                                              
  3.750000E+02  1.250000E+02 -5.225000E+03  1.363292E-08 -6.413354E-10  2.450746E-10 -1.361562E-08  7.352572E-11 -3.474556E-12  1.327778E-12 -7.343157E-11  0.000000E+00  0.000000E+00  0.000000E+00  0.000000E+00  0.000000E+00  0.000000E+00  0.000000E+00  0.000000E+00  2.112771E-01  2.105426E-03 -2.003055E-04  2.112665E-01                                                                                                                                                                                                                                                                                                                                                                                                                                                                                              
  6.250000E+02  1.250000E+02 -5.225000E+03  1.411788E-08 -6.176080E-10  2.512921E-10 -1.410213E-08  7.613032E-11 -3.345686E-12  1.361290E-12 -7.604458E-11  0.000000E+00  0.000000E+00  0.000000E+00  0.000000E+00  0.000000E+00  0.000000E+00  0.000000E+00  0.000000E+00  2.123650E-01  1.959876E-03 -2.309576E-04  2.123559E-01                                                                                                                                                                                                                                                                                                                                                                                                                                                                                              
  8.750000E+02  1.250000E+02 -5.225000E+03  1.441441E-08 -3.031542E-10  2.572736E-10 -1.440892E-08  7.772138E-11 -1.642120E-12  1.393570E-12 -7.769153E-11  0.000000E+00  0.000000E+00  0.000000E+00  0.000000E+00  0.000000E+00  0.000000E+00  0.000000E+00  0.000000E+00  2.129966E-01  9.408547E-04 -2.589214E-04  2.129944E-01                                                                                                                                                                                                                                                                                                                                                                                                                                                                                              
  1.050000E+03  1.250000E+02 -5.225000E+03  1.445269E-08  2.688713E-15  2.582093E-10 -1.445038E-08  7.792664E-11  1.456347E-17  1.398624E-12 -7.791409E-11  0.000000E+00  0.000000E+00  0.000000E+00  0.000000E+00  0.000000E+00  0.000000E+00  0.000000E+00  0.000000E+00  2.130842E-01  1.003730E-08 -2.631771E-04  2.130841E-01                                                                                                                                                                                                                                                                                                                                                                                                                                                                                              
  1.225000E+03  1.250000E+02 -5.225000E+03  1.441442E-08  3.031376E-10  2.572631E-10 -1.440893E-08  7.772142E-11  1.642030E-12  1.393513E-12 -7.769157E-11  0.000000E+00  0.000000E+00  0.000000E+00  0.000000E+00  0.000000E+00  0.000000E+00  0.000000E+00  0.000000E+00  2.129966E-01 -9.408677E-04 -2.589393E-04  2.129944E-01                                                                                                                                                                                                                                                                                                                                                                                                                                                                                              
  1.475000E+03  1.250000E+02 -5.225000E+03  1.411789E-08  6.175949E-10  2.513014E-10 -1.410213E-08  7.613036E-11  3.345615E-12  1.361340E-12 -7.604462E-11  0.000000E+00  0.000000E+00  0.000000E+00  0.000000E+00  0.000000E+00  0.000000E+00  0.000000E+00  0.000000E+00  2.123650E-01 -1.959908E-03 -2.309660E-04  2.123559E-01                                                                                                                                                                                                                                                                                                                                                                                                                                                                                              
  1.725000E+03  1.250000E+02 -5.225000E+03  1.363294E-08  6.413446E-10  2.450821E-10 -1.361564E-08  7.352579E-11  3.474607E-12  1.327818E-12 -7.343164E-11  0.000000E+00  0.000000E+00  0.000000E+00  0.000000E+00  0.000000E+00  0.000000E+00  0.000000E+00  0.000000E+00  2.112771E-01 -2.105423E-03 -2.002903E-04  2.112665E-01                                                                                                                                                                                                                                                                                                                                                                                                                                                                                              
  1.975000E+03  1.250000E+02 -5.225000E+03  1.313755E-08  2.812375E-10  2.411414E-10 -1.313233E-08  7.086259E-11  1.523757E-12  1.306603E-12 -7.083415E-11  0.000000E+00  0.000000E+00  0.000000E+00  0.000000E+00  0.000000E+00  0.000000E+00  0.000000E+00  0.000000E+00  2.100538E-01 -9.454588E-04 -1.800391E-04  2.100516E-01                                                                                                                                                                                                                                                                                                                                                                                                                                                                                              
  1.250000E+02  1.250000E+02 -4.975000E+03  2.320094E-08 -2.727277E-10  1.750007E-10 -2.319868E-08  1.236797E-10 -1.457829E-12  9.355570E-13 -1.236676E-10  0.000000E+00  0.000000E+00  0.000000E+00  0.000000E+00  0.000000E+00  0.000000E+00  0.000000E+00  0.000000E+00  3.775019E-01  2.139869E-03 -5.328010E-04  3.774955E-01                                                                                                                                                                                                                                                                                                                                                                                                                                                                                              
  3.750000E+02  1.250000E+02 -4.975000E+03  2.412292E-08 -5.709797E-10  1.800885E-10 -2.411549E-08  1.285619E-10 -3.051774E-12  9.625707E-13 -1.285220E-10  0.000000E+00  0.000000E+00  0.000000E+00  0.000000E+00  0.000000E+00  0.000000E+00  0.000000E+00  0.000000E+00  3.812672E-01  4.399797E-03 -5.794445E-04  3.812414E-01                                                                                                                                                                                                                                                                                                                                                                                                                                                                                              
  6.250000E+02  1.250000E+02 -4.975000E+03  2.490100E-08 -5.003101E-10  1.883680E-10 -2.489526E-08  1.326806E-10 -2.673618E-12  1.006620E-12 -1.326498E-10  0.000000E+00  0.000000E+00  0.000000E+00  0.000000E+00  0.000000E+00  0.000000E+00  0.000000E+00  0.000000E+00  3.836858E-01  3.720988E-03 -6.488779E-04  3.836672E-01                                                                                                                                                                                                                                                                                                                                                                                                                                                                                              
  8.750000E+02  1.250000E+02 -4.975000E+03  2.538162E-08 -2.411849E-10  1.978767E-10 -2.537970E-08  1.352234E-10 -1.288725E-12  1.057296E-12 -1.352131E-10  0.000000E+00  0.000000E+00  0.000000E+00  0.000000E+00  0.000000E+00  0.000000E+00  0.000000E+00  0.000000E+00  3.849694E-01  1.734384E-03 -7.226480E-04  3.849648E-01                                                                                                                                                                                                                                                                                                                                                                                                                                                                                              
  1.050000E+03  1.250000E+02 -4.975000E+03  2.547268E-08 -5.795615E-15  2.002557E-10 -2.547189E-08  1.357049E-10 -3.096569E-17  1.069989E-12 -1.357006E-10  0.000000E+00  0.000000E+00  0.000000E+00  0.000000E+00  0.000000E+00  0.000000E+00  0.000000E+00  0.000000E+00  3.852862E-01 -1.416863E-08 -7.404042E-04  3.852855E-01                                                                                                                                                                                                                                                                                                                                                                                                                                                                                              
  1.225000E+03  1.250000E+02 -4.975000E+03  2.538162E-08  2.411740E-10  1.978750E-10 -2.537970E-08  1.352234E-10  1.288667E-12  1.057287E-12 -1.352132E-10  0.000000E+00  0.000000E+00  0.000000E+00  0.000000E+00  0.000000E+00  0.000000E+00  0.000000E+00  0.000000E+00  3.849694E-01 -1.734395E-03 -7.226407E-04  3.849648E-01                                                                                                                                                                                                                                                                                                                                                                                                                                                                                              
  1.475000E+03  1.250000E+02 -4.975000E+03  2.490099E-08  5.002998E-10  1.883620E-10 -2.489525E-08  1.326805E-10  2.673563E-12  1.006588E-12 -1.326497E-10  0.000000E+00  0.000000E+00  0.000000E+00  0.000000E+00  0.000000E+00  0.000000E+00  0.000000E+00  0.000000E+00  3.836858E-01 -3.720996E-03 -6.488850E-04  3.836672E-01                                                                                                                                                                                                                                                                                                                                                                                                                                                                                              
  1.725000E+03  1.250000E+02 -4.975000E+03  2.412291E-08  5.709841E-10  1.800948E-10 -2.411548E-08  1.285618E-10  3.051798E-12  9.626047E-13 -1.285220E-10  0.000000E+00  0.000000E+00  0.000000E+00  0.000000E+00  0.000000E+00  0.000000E+00  0.000000E+00  0.000000E+00  3.812672E-01 -4.399788E-03 -5.794370E-04  3.812414E-01                                                                                                                                                                                                                                                                                                                                                                                                                                                                                              
  1.975000E+03  1.250000E+02 -4.975000E+03  2.320093E-08  2.727373E-10  1.750039E-10 -2.319867E-08  1.236797E-10  1.457880E-12  9.355739E-13 -1.236675E-10  0.000000E+00  0.000000E+00  0.000000E+00  0.000000E+00  0.000000E+00  0.000000E+00  0.000000E+00  0.000000E+00  3.775019E-01 -2.139850E-03 -5.328211E-04  3.774955E-01                                                                                                                                                                                                                                                                                                                                                                                                                                                                                              
  1.250000E+02  1.250000E+02 -4.725000E+03  2.947257E-08 -2.699150E-10  9.725043E-11 -2.947117E-08  1.548158E-10 -1.416550E-12  5.105051E-13 -1.548084E-10  0.000000E+00  0.000000E+00  0.000000E+00  0.000000E+00  0.000000E+00  0.000000E+00  0.000000E+00  0.000000E+00  4.886047E-01  5.246895E-03 -1.083806E-03  4.885753E-01                                                                                                                                                                                                                                                                                                                                                                                                                                                                                              
  3.750000E+02  1.250000E+02 -4.725000E+03  3.090849E-08 -4.967434E-10  1.045152E-10 -3.090432E-08  1.622778E-10 -2.606545E-12  5.484224E-13 -1.622559E-10  0.000000E+00  0.000000E+00  0.000000E+00  0.000000E+00  0.000000E+00  0.000000E+00  0.000000E+00  0.000000E+00  5.001233E-01  9.395884E-03 -1.219423E-03  5.000336E-01                                                                                                                                                                                                                                                                                                                                                                                                                                                                                              
  6.250000E+02  1.250000E+02 -4.725000E+03  3.180924E-08 -3.831337E-10  1.162535E-10 -3.180672E-08  1.669580E-10 -2.009797E-12  6.098263E-13 -1.669448E-10  0.000000E+00  0.000000E+00  0.000000E+00  0.000000E+00  0.000000E+00  0.000000E+00  0.000000E+00  0.000000E+00  5.035942E-01  6.611802E-03 -1.403549E-03  5.035488E-01                                                                                                                                                                                                                                                                                                                                                                                                                                                                                              
  8.750000E+02  1.250000E+02 -4.725000E+03  3.238936E-08 -2.113679E-10  1.327037E-10 -3.238839E-08  1.699722E-10 -1.108567E-12  6.959930E-13 -1.699672E-10  0.000000E+00  0.000000E+00  0.000000E+00  0.000000E+00  0.000000E+00  0.000000E+00  0.000000E+00  0.000000E+00  5.052902E-01  3.135509E-03 -1.635748E-03  5.052778E-01                                                                                                                                                                                                                                                                                                                                                                                                                                                                                              
  1.050000E+03  1.250000E+02 -4.725000E+03  3.269494E-08 -4.810702E-15  1.416626E-10 -3.269464E-08  1.715597E-10 -2.522865E-17  7.429562E-13 -1.715581E-10  0.000000E+00  0.000000E+00  0.000000E+00  0.000000E+00  0.000000E+00  0.000000E+00  0.000000E+00  0.000000E+00  5.074417E-01 -1.604078E-09 -1.762143E-03  5.074386E-01                                                                                                                                                                                                                                                                                                                                                                                                                                                                                              
  1.225000E+03  1.250000E+02 -4.725000E+03  3.238935E-08  2.113634E-10  1.327043E-10 -3.238839E-08  1.699722E-10  1.108543E-12  6.959962E-13 -1.699671E-10  0.000000E+00  0.000000E+00  0.000000E+00  0.000000E+00  0.000000E+00  0.000000E+00  0.000000E+00  0.000000E+00  5.052902E-01 -3.135512E-03 -1.635748E-03  5.052779E-01                                                                                                                                                                                                                                                                                                                                                                                                                                                                                              
  1.475000E+03  1.250000E+02 -4.725000E+03  3.180923E-08  3.831356E-10  1.162527E-10 -3.180671E-08  1.669580E-10  2.009807E-12  6.098221E-13 -1.669448E-10  0.000000E+00  0.000000E+00  0.000000E+00  0.000000E+00  0.000000E+00  0.000000E+00  0.000000E+00  0.000000E+00  5.035942E-01 -6.611802E-03 -1.403551E-03  5.035488E-01                                                                                                                                                                                                                                                                                                                                                                                                                                                                                              
  1.725000E+03  1.250000E+02 -4.725000E+03  3.090847E-08  4.967476E-10  1.045146E-10 -3.090430E-08  1.622777E-10  2.606567E-12  5.484188E-13 -1.622559E-10  0.000000E+00  0.000000E+00  0.000000E+00  0.000000E+00  0.000000E+00  0.000000E+00  0.000000E+00  0.000000E+00  5.001233E-01 -9.395880E-03 -1.219425E-03  5.000336E-01                                                                                                                                                                                                                                                                                                                                                                                                                                                                                              