Title="TOUGHREACT V3.30-OMP flowvector.tec: Liq & Gas Fluxes (kg/s/m^2), Pore Velocities (m/s), & Heat Fluxes (J/s/m2)"                                                                                                                                                                                                                                                                                                                                                                                                                                                                                                                                                                                                                                                                                                         
Variables= "X(m)"     "Y(m)"      "Z(m)"     "FluxLiq"   "FluxLiq_X"   "FluxLiq_Y"   "FluxLiq_Z"   "PorVelLiq"  "PorVelLiqX"  "PorVelLiqY"  "PorVelLiqZ"     "FluxGas"   "FluxGas_X"   "FluxGas_Y"   "FluxGas_Z"   "PorVelGas"  "PorVelGasX"  "PorVelGasY"  "PorVelGasZ"    "HeatFlux"  "HeatFlux_X"  "HeatFlux_Y"  "HeatFlux_Z"                                                                                                                                                                                                                                                                                                                                                                                                                                                                                                
Zone T= "5.18400000E+05 sec" I=     9 J=    10 K=    23 F=Point
  1.250000E+02  1.250000E+02 -5.425000E+03  3.291830E-09 -3.586309E-10  2.894400E-10 -3.259410E-09  1.787360E-11 -1.951894E-12  1.575395E-12 -1.769672E-11  0.000000E+00  0.000000E+00  0.000000E+00  0.000000E+00  0.000000E+00  0.000000E+00  0.000000E+00  0.000000E+00  5.900670E-02  5.936727E-04 -4.602596E-05  5.900370E-02                                                                                                                                                                                                                                                                                                                                                                                                                                                                                              
  3.750000E+02  1.250000E+02 -5.425000E+03  3.517324E-09 -8.387597E-10  2.944548E-10 -3.403138E-09  1.909831E-11 -4.564814E-12  1.602563E-12 -1.847538E-11  0.000000E+00  0.000000E+00  0.000000E+00  0.000000E+00  0.000000E+00  0.000000E+00  0.000000E+00  0.000000E+00  5.927885E-02  1.359496E-03 -5.987704E-05  5.926323E-02                                                                                                                                                                                                                                                                                                                                                                                                                                                                                              
  6.250000E+02  1.250000E+02 -5.425000E+03  3.665684E-09 -8.299812E-10  3.021378E-10 -3.557679E-09  1.990131E-11 -4.516690E-12  1.644208E-12 -1.931213E-11  0.000000E+00  0.000000E+00  0.000000E+00  0.000000E+00  0.000000E+00  0.000000E+00  0.000000E+00  0.000000E+00  5.954036E-02  1.306656E-03 -8.077886E-05  5.952596E-02                                                                                                                                                                                                                                                                                                                                                                                                                                                                                              
  8.750000E+02  1.250000E+02 -5.425000E+03  3.692341E-09 -4.114682E-10  3.088508E-10 -3.656321E-09  2.004246E-11 -2.239046E-12  1.680616E-12 -1.984597E-11  0.000000E+00  0.000000E+00  0.000000E+00  0.000000E+00  0.000000E+00  0.000000E+00  0.000000E+00  0.000000E+00  5.969074E-02  6.355645E-04 -9.864018E-05  5.968727E-02                                                                                                                                                                                                                                                                                                                                                                                                                                                                                              
  1.050000E+03  1.250000E+02 -5.425000E+03  3.681766E-09 -1.062499E-14  3.097572E-10 -3.668712E-09  1.998423E-11 -5.781494E-17  1.685533E-12 -1.991303E-11  0.000000E+00  0.000000E+00  0.000000E+00  0.000000E+00  0.000000E+00  0.000000E+00  0.000000E+00  0.000000E+00  5.970775E-02 -4.300293E-09 -1.010127E-04  5.970766E-02                                                                                                                                                                                                                                                                                                                                                                                                                                                                                              
  1.225000E+03  1.250000E+02 -5.425000E+03  3.692333E-09  4.114822E-10  3.088606E-10 -3.656311E-09  2.004242E-11  2.239122E-12  1.680669E-12 -1.984592E-11  0.000000E+00  0.000000E+00  0.000000E+00  0.000000E+00  0.000000E+00  0.000000E+00  0.000000E+00  0.000000E+00  5.969074E-02 -6.355591E-04 -9.863340E-05  5.968727E-02                                                                                                                                                                                                                                                                                                                                                                                                                                                                                              
  1.475000E+03  1.250000E+02 -5.425000E+03  3.665714E-09  8.300069E-10  3.021258E-10 -3.557705E-09  1.990148E-11  4.516830E-12  1.644142E-12 -1.931227E-11  0.000000E+00  0.000000E+00  0.000000E+00  0.000000E+00  0.000000E+00  0.000000E+00  0.000000E+00  0.000000E+00  5.954034E-02 -1.306663E-03 -8.079146E-05  5.952594E-02                                                                                                                                                                                                                                                                                                                                                                                                                                                                                              
  1.725000E+03  1.250000E+02 -5.425000E+03  3.517321E-09  8.387641E-10  2.944345E-10 -3.403135E-09  1.909829E-11  4.564838E-12  1.602452E-12 -1.847537E-11  0.000000E+00  0.000000E+00  0.000000E+00  0.000000E+00  0.000000E+00  0.000000E+00  0.000000E+00  0.000000E+00  5.927886E-02 -1.359515E-03 -5.986890E-05  5.926324E-02                                                                                                                                                                                                                                                                                                                                                                                                                                                                                              
  1.975000E+03  1.250000E+02 -5.425000E+03  3.291827E-09  3.586343E-10  2.894424E-10 -3.259407E-09  1.787358E-11  1.951912E-12  1.575408E-12 -1.769670E-11  0.000000E+00  0.000000E+00  0.000000E+00  0.000000E+00  0.000000E+00  0.000000E+00  0.000000E+00  0.000000E+00  5.900674E-02 -5.936757E-04 -4.600472E-05  5.900373E-02                                                                                                                                                                                                                                                                                                                                                                                                                                                                                              
  1.250000E+02  1.250000E+02 -5.225000E+03  1.156792E-08 -2.859369E-10  2.432523E-10 -1.156182E-08  6.241074E-11 -1.549588E-12  1.318355E-12 -6.237757E-11  0.000000E+00  0.000000E+00  0.000000E+00  0.000000E+00  0.000000E+00  0.000000E+00  0.000000E+00  0.000000E+00  2.118239E-01  9.435650E-04 -1.738964E-04  2.118218E-01                                                                                                                                                                                                                                                                                                                                                                                                                                                                                              
  3.750000E+02  1.250000E+02 -5.225000E+03  1.207302E-08 -6.517793E-10  2.473165E-10 -1.205288E-08  6.512816E-11 -3.531981E-12  1.340243E-12 -6.501850E-11  0.000000E+00  0.000000E+00  0.000000E+00  0.000000E+00  0.000000E+00  0.000000E+00  0.000000E+00  0.000000E+00  2.130475E-01  2.100372E-03 -1.943577E-04  2.130371E-01                                                                                                                                                                                                                                                                                                                                                                                                                                                                                              
  6.250000E+02  1.250000E+02 -5.225000E+03  1.256467E-08 -6.273187E-10  2.536619E-10 -1.254644E-08  6.777066E-11 -3.399101E-12  1.374455E-12 -6.767141E-11  0.000000E+00  0.000000E+00  0.000000E+00  0.000000E+00  0.000000E+00  0.000000E+00  0.000000E+00  0.000000E+00  2.141364E-01  1.954005E-03 -2.253775E-04  2.141274E-01                                                                                                                                                                                                                                                                                                                                                                                                                                                                                              
  8.750000E+02  1.250000E+02 -5.225000E+03  1.286372E-08 -3.078310E-10  2.597713E-10 -1.285741E-08  6.937645E-11 -1.667850E-12  1.407434E-12 -6.934211E-11  0.000000E+00  0.000000E+00  0.000000E+00  0.000000E+00  0.000000E+00  0.000000E+00  0.000000E+00  0.000000E+00  2.147688E-01  9.376181E-04 -2.536422E-04  2.147666E-01                                                                                                                                                                                                                                                                                                                                                                                                                                                                                              
  1.050000E+03  1.250000E+02 -5.225000E+03  1.290207E-08  9.310687E-16  2.607368E-10 -1.289944E-08  6.958220E-11  5.044381E-18  1.412650E-12 -6.956786E-11  0.000000E+00  0.000000E+00  0.000000E+00  0.000000E+00  0.000000E+00  0.000000E+00  0.000000E+00  0.000000E+00  2.148566E-01  6.976341E-11 -2.579225E-04  2.148564E-01                                                                                                                                                                                                                                                                                                                                                                                                                                                                                              
  1.225000E+03  1.250000E+02 -5.225000E+03  1.286371E-08  3.078263E-10  2.597788E-10 -1.285741E-08  6.937640E-11  1.667825E-12  1.407475E-12 -6.934207E-11  0.000000E+00  0.000000E+00  0.000000E+00  0.000000E+00  0.000000E+00  0.000000E+00  0.000000E+00  0.000000E+00  2.147688E-01 -9.376265E-04 -2.536406E-04  2.147666E-01                                                                                                                                                                                                                                                                                                                                                                                                                                                                                              
  1.475000E+03  1.250000E+02 -5.225000E+03  1.256470E-08  6.273342E-10  2.536757E-10 -1.254646E-08  6.777080E-11  3.399185E-12  1.374530E-12 -6.767154E-11  0.000000E+00  0.000000E+00  0.000000E+00  0.000000E+00  0.000000E+00  0.000000E+00  0.000000E+00  0.000000E+00  2.141364E-01 -1.954011E-03 -2.253813E-04  2.141274E-01                                                                                                                                                                                                                                                                                                                                                                                                                                                                                              
  1.725000E+03  1.250000E+02 -5.225000E+03  1.207302E-08  6.518053E-10  2.472900E-10 -1.205287E-08  6.512815E-11  3.532122E-12  1.340099E-12 -6.501849E-11  0.000000E+00  0.000000E+00  0.000000E+00  0.000000E+00  0.000000E+00  0.000000E+00  0.000000E+00  0.000000E+00  2.130475E-01 -2.100350E-03 -1.943656E-04  2.130371E-01                                                                                                                                                                                                                                                                                                                                                                                                                                                                                              
  1.975000E+03  1.250000E+02 -5.225000E+03  1.156793E-08  2.859418E-10  2.432391E-10 -1.156183E-08  6.241080E-11  1.549615E-12  1.318283E-12 -6.237764E-11  0.000000E+00  0.000000E+00  0.000000E+00  0.000000E+00  0.000000E+00  0.000000E+00  0.000000E+00  0.000000E+00  2.118240E-01 -9.435458E-04 -1.739101E-04  2.118218E-01                                                                                                                                                                                                                                                                                                                                                                                                                                                                                              
  1.250000E+02  1.250000E+02 -4.975000E+03  2.013483E-08 -2.795954E-10  1.776248E-10 -2.013210E-08  1.073615E-10 -1.494804E-12  9.497548E-13 -1.073468E-10  0.000000E+00  0.000000E+00  0.000000E+00  0.000000E+00  0.000000E+00  0.000000E+00  0.000000E+00  0.000000E+00  3.809256E-01  2.142352E-03 -5.288419E-04  3.809192E-01                                                                                                                                                                                                                                                                                                                                                                                                                                                                                              
  3.750000E+02  1.250000E+02 -4.975000E+03  2.107610E-08 -5.849011E-10  1.828803E-10 -2.106719E-08  1.123509E-10 -3.126736E-12  9.776665E-13 -1.123031E-10  0.000000E+00  0.000000E+00  0.000000E+00  0.000000E+00  0.000000E+00  0.000000E+00  0.000000E+00  0.000000E+00  3.846904E-01  4.404170E-03 -5.758048E-04  3.846648E-01                                                                                                                                                                                                                                                                                                                                                                                                                                                                                              
  6.250000E+02  1.250000E+02 -4.975000E+03  2.186703E-08 -5.119335E-10  1.913623E-10 -2.186020E-08  1.165424E-10 -2.736216E-12  1.022802E-12 -1.165057E-10  0.000000E+00  0.000000E+00  0.000000E+00  0.000000E+00  0.000000E+00  0.000000E+00  0.000000E+00  0.000000E+00  3.871084E-01  3.723489E-03 -6.457691E-04  3.870899E-01                                                                                                                                                                                                                                                                                                                                                                                                                                                                                              
  8.750000E+02  1.250000E+02 -4.975000E+03  2.235440E-08 -2.466296E-10  2.011326E-10 -2.235214E-08  1.191238E-10 -1.318050E-12  1.074882E-12 -1.191117E-10  0.000000E+00  0.000000E+00  0.000000E+00  0.000000E+00  0.000000E+00  0.000000E+00  0.000000E+00  0.000000E+00  3.883915E-01  1.735042E-03 -7.200234E-04  3.883869E-01                                                                                                                                                                                                                                                                                                                                                                                                                                                                                              
  1.050000E+03  1.250000E+02 -4.975000E+03  2.244685E-08 -1.874954E-15  2.035816E-10 -2.244592E-08  1.196130E-10 -1.001951E-17  1.087951E-12 -1.196081E-10  0.000000E+00  0.000000E+00  0.000000E+00  0.000000E+00  0.000000E+00  0.000000E+00  0.000000E+00  0.000000E+00  3.887080E-01 -1.083912E-08 -7.378648E-04  3.887073E-01                                                                                                                                                                                                                                                                                                                                                                                                                                                                                              
  1.225000E+03  1.250000E+02 -4.975000E+03  2.235440E-08  2.466256E-10  2.011334E-10 -2.235214E-08  1.191238E-10  1.318029E-12  1.074887E-12 -1.191117E-10  0.000000E+00  0.000000E+00  0.000000E+00  0.000000E+00  0.000000E+00  0.000000E+00  0.000000E+00  0.000000E+00  3.883915E-01 -1.735048E-03 -7.200200E-04  3.883869E-01                                                                                                                                                                                                                                                                                                                                                                                                                                                                                              
  1.475000E+03  1.250000E+02 -4.975000E+03  2.186703E-08  5.119473E-10  1.913623E-10 -2.186019E-08  1.165423E-10  2.736290E-12  1.022802E-12 -1.165057E-10  0.000000E+00  0.000000E+00  0.000000E+00  0.000000E+00  0.000000E+00  0.000000E+00  0.000000E+00  0.000000E+00  3.871084E-01 -3.723482E-03 -6.457714E-04  3.870899E-01                                                                                                                                                                                                                                                                                                                                                                                                                                                                                              
  1.725000E+03  1.250000E+02 -4.975000E+03  2.107611E-08  5.849086E-10  1.828680E-10 -2.106720E-08  1.123510E-10  3.126776E-12  9.776003E-13 -1.123032E-10  0.000000E+00  0.000000E+00  0.000000E+00  0.000000E+00  0.000000E+00  0.000000E+00  0.000000E+00  0.000000E+00  3.846904E-01 -4.404160E-03 -5.758054E-04  3.846648E-01                                                                                                                                                                                                                                                                                                                                                                                                                                                                                              
  1.975000E+03  1.250000E+02 -4.975000E+03  2.013485E-08  2.795869E-10  1.776185E-10 -2.013212E-08  1.073615E-10  1.494759E-12  9.497209E-13 -1.073469E-10  0.000000E+00  0.000000E+00  0.000000E+00  0.000000E+00  0.000000E+00  0.000000E+00  0.000000E+00  0.000000E+00  3.809256E-01 -2.142344E-03 -5.288642E-04  3.809192E-01                                                                                                                                                                                                                                                                                                                                                                                                                                                                                              
  1.250000E+02  1.250000E+02 -4.725000E+03  2.476170E-08 -2.776005E-10  9.909468E-11 -2.475994E-08  1.301051E-10 -1.457008E-12  5.202307E-13 -1.300959E-10  0.000000E+00  0.000000E+00  0.000000E+00  0.000000E+00  0.000000E+00  0.000000E+00  0.000000E+00  0.000000E+00  4.934825E-01  5.260579E-03 -1.085014E-03  4.934532E-01                                                                                                                                                                                                                                                                                                                                                                                                                                                                                              
  3.750000E+02  1.250000E+02 -4.725000E+03  2.623274E-08 -5.100252E-10  1.065794E-10 -2.622756E-08  1.377632E-10 -2.676463E-12  5.593003E-13 -1.377361E-10  0.000000E+00  0.000000E+00  0.000000E+00  0.000000E+00  0.000000E+00  0.000000E+00  0.000000E+00  0.000000E+00  5.050091E-01  9.419922E-03 -1.221203E-03  5.049197E-01                                                                                                                                                                                                                                                                                                                                                                                                                                                                                              
  6.250000E+02  1.250000E+02 -4.725000E+03  2.714969E-08 -3.920814E-10  1.186167E-10 -2.714660E-08  1.425364E-10 -2.056904E-12  6.222745E-13 -1.425202E-10  0.000000E+00  0.000000E+00  0.000000E+00  0.000000E+00  0.000000E+00  0.000000E+00  0.000000E+00  0.000000E+00  5.084795E-01  6.627546E-03 -1.406227E-03  5.084344E-01                                                                                                                                                                                                                                                                                                                                                                                                                                                                                              
  8.750000E+02  1.250000E+02 -4.725000E+03  2.773898E-08 -2.158272E-10  1.354691E-10 -2.773781E-08  1.456035E-10 -1.132047E-12  7.105548E-13 -1.455973E-10  0.000000E+00  0.000000E+00  0.000000E+00  0.000000E+00  0.000000E+00  0.000000E+00  0.000000E+00  0.000000E+00  5.101771E-01  3.141917E-03 -1.639557E-03  5.101648E-01                                                                                                                                                                                                                                                                                                                                                                                                                                                                                              
  1.050000E+03  1.250000E+02 -4.725000E+03  2.805054E-08  1.065289E-15  1.446841E-10 -2.805017E-08  1.472237E-10  5.587113E-18  7.588648E-13 -1.472217E-10  0.000000E+00  0.000000E+00  0.000000E+00  0.000000E+00  0.000000E+00  0.000000E+00  0.000000E+00  0.000000E+00  5.123329E-01  2.275169E-09 -1.766535E-03  5.123298E-01                                                                                                                                                                                                                                                                                                                                                                                                                                                                                              
  1.225000E+03  1.250000E+02 -4.725000E+03  2.773898E-08  2.158311E-10  1.354670E-10 -2.773781E-08  1.456035E-10  1.132067E-12  7.105437E-13 -1.455973E-10  0.000000E+00  0.000000E+00  0.000000E+00  0.000000E+00  0.000000E+00  0.000000E+00  0.000000E+00  0.000000E+00  5.101771E-01 -3.141915E-03 -1.639557E-03  5.101648E-01                                                                                                                                                                                                                                                                                                                                                                                                                                                                                              
  1.475000E+03  1.250000E+02 -4.725000E+03  2.714969E-08  3.920827E-10  1.186125E-10 -2.714660E-08  1.425364E-10  2.056912E-12  6.222524E-13 -1.425202E-10  0.000000E+00  0.000000E+00  0.000000E+00  0.000000E+00  0.000000E+00  0.000000E+00  0.000000E+00  0.000000E+00  5.084795E-01 -6.627547E-03 -1.406232E-03  5.084344E-01                                                                                                                                                                                                                                                                                                                                                                                                                                                                                              
  1.725000E+03  1.250000E+02 -4.725000E+03  2.623275E-08  5.100229E-10  1.065794E-10 -2.622758E-08  1.377633E-10  2.676451E-12  5.593005E-13 -1.377361E-10  0.000000E+00  0.000000E+00  0.000000E+00  0.000000E+00  0.000000E+00  0.000000E+00  0.000000E+00  0.000000E+00  5.050091E-01 -9.419922E-03 -1.221207E-03  5.049197E-01                                                                                                                                                                                                                                                                                                                                                                                                                                                                                              