Title="TOUGHREACT V3.30-OMP flowvector.tec: Liq & Gas Fluxes (kg/s/m^2), Pore Velocities (m/s), & Heat Fluxes (J/s/m2)"                                                                                                                                                                                                                                                                                                                                                                                                                                                                                                                                                                                                                                                                                                         
Variables= "X(m)"     "Y(m)"      "Z(m)"     "FluxLiq"   "FluxLiq_X"   "FluxLiq_Y"   "FluxLiq_Z"   "PorVelLiq"  "PorVelLiqX"  "PorVelLiqY"  "PorVelLiqZ"     "FluxGas"   "FluxGas_X"   "FluxGas_Y"   "FluxGas_Z"   "PorVelGas"  "PorVelGasX"  "PorVelGasY"  "PorVelGasZ"    "HeatFlux"  "HeatFlux_X"  "HeatFlux_Y"  "HeatFlux_Z"                                                                                                                                                                                                                                                                                                                                                                                                                                                                                                
Zone T= "2.00000000E+11 sec" I=     9 J=    10 K=    23 F=Point
  1.250000E+02  1.250000E+02 -5.425000E+03  1.454414E-09 -1.631734E-10  2.518952E-10 -1.423110E-09  7.641870E-12 -8.580904E-13  1.324712E-12 -7.477098E-12  0.000000E+00  0.000000E+00  0.000000E+00  0.000000E+00  0.000000E+00  0.000000E+00  0.000000E+00  0.000000E+00  2.508467E-02  4.372350E-04 -4.139052E-04  2.507745E-02                                                                                                                                                                                                                                                                                                                                                                                                                                                                                              
  3.750000E+02  1.250000E+02 -5.425000E+03  1.555629E-09 -3.838916E-10  2.542018E-10 -1.485931E-09  8.173647E-12 -2.018740E-12  1.336789E-12 -7.806804E-12  0.000000E+00  0.000000E+00  0.000000E+00  0.000000E+00  0.000000E+00  0.000000E+00  0.000000E+00  0.000000E+00  2.525075E-02  1.019897E-03 -4.201870E-04  2.522664E-02                                                                                                                                                                                                                                                                                                                                                                                                                                                                                              
  6.250000E+02  1.250000E+02 -5.425000E+03  1.622078E-09 -3.830935E-10  2.577089E-10 -1.554980E-09  8.522241E-12 -2.014463E-12  1.355159E-12 -8.169092E-12  0.000000E+00  0.000000E+00  0.000000E+00  0.000000E+00  0.000000E+00  0.000000E+00  0.000000E+00  0.000000E+00  2.539891E-02  1.006176E-03 -4.295902E-04  2.537533E-02                                                                                                                                                                                                                                                                                                                                                                                                                                                                                              
  8.750000E+02  1.250000E+02 -5.425000E+03  1.632508E-09 -1.910288E-10  2.608144E-10 -1.600177E-09  8.576339E-12 -1.004477E-12  1.371435E-12 -8.406175E-12  0.000000E+00  0.000000E+00  0.000000E+00  0.000000E+00  0.000000E+00  0.000000E+00  0.000000E+00  0.000000E+00  2.547395E-02  4.980845E-04 -4.379007E-04  2.546532E-02                                                                                                                                                                                                                                                                                                                                                                                                                                                                                              
  1.050000E+03  1.250000E+02 -5.425000E+03  1.627033E-09 -1.297472E-15  2.612367E-10 -1.605924E-09  8.547424E-12 -6.822285E-18  1.373649E-12 -8.436323E-12  0.000000E+00  0.000000E+00  0.000000E+00  0.000000E+00  0.000000E+00  0.000000E+00  0.000000E+00  0.000000E+00  2.548059E-02 -3.588171E-09 -4.390458E-04  2.547680E-02                                                                                                                                                                                                                                                                                                                                                                                                                                                                                              
  1.225000E+03  1.250000E+02 -5.425000E+03  1.632506E-09  1.910295E-10  2.608157E-10 -1.600174E-09  8.576327E-12  1.004480E-12  1.371442E-12 -8.406162E-12  0.000000E+00  0.000000E+00  0.000000E+00  0.000000E+00  0.000000E+00  0.000000E+00  0.000000E+00  0.000000E+00  2.547395E-02 -4.980880E-04 -4.378983E-04  2.546532E-02                                                                                                                                                                                                                                                                                                                                                                                                                                                                                              
  1.475000E+03  1.250000E+02 -5.425000E+03  1.622079E-09  3.830973E-10  2.577083E-10 -1.554980E-09  8.522243E-12  2.014482E-12  1.355156E-12 -8.169091E-12  0.000000E+00  0.000000E+00  0.000000E+00  0.000000E+00  0.000000E+00  0.000000E+00  0.000000E+00  0.000000E+00  2.539891E-02 -1.006170E-03 -4.295847E-04  2.537534E-02                                                                                                                                                                                                                                                                                                                                                                                                                                                                                              
  1.725000E+03  1.250000E+02 -5.425000E+03  1.555632E-09  3.838930E-10  2.542021E-10 -1.485933E-09  8.173660E-12  2.018747E-12  1.336791E-12 -7.806815E-12  0.000000E+00  0.000000E+00  0.000000E+00  0.000000E+00  0.000000E+00  0.000000E+00  0.000000E+00  0.000000E+00  2.525074E-02 -1.019897E-03 -4.201892E-04  2.522664E-02                                                                                                                                                                                                                                                                                                                                                                                                                                                                                              
  1.975000E+03  1.250000E+02 -5.425000E+03  1.454416E-09  1.631730E-10  2.518934E-10 -1.423112E-09  7.641880E-12  8.580880E-13  1.324703E-12 -7.477110E-12  0.000000E+00  0.000000E+00  0.000000E+00  0.000000E+00  0.000000E+00  0.000000E+00  0.000000E+00  0.000000E+00  2.508468E-02 -4.372410E-04 -4.139024E-04  2.507745E-02                                                                                                                                                                                                                                                                                                                                                                                                                                                                                              
  1.250000E+02  1.250000E+02 -5.225000E+03  4.995213E-09 -1.368458E-10  1.886284E-10 -4.989774E-09  2.619085E-11 -7.187075E-13  9.907140E-13 -2.616224E-11  0.000000E+00  0.000000E+00  0.000000E+00  0.000000E+00  0.000000E+00  0.000000E+00  0.000000E+00  0.000000E+00  8.877682E-02  6.013943E-04 -4.764023E-04  8.877350E-02                                                                                                                                                                                                                                                                                                                                                                                                                                                                                              
  3.750000E+02  1.250000E+02 -5.225000E+03  5.224006E-09 -3.134126E-10  1.911429E-10 -5.211092E-09  2.738881E-11 -1.645974E-12  1.003870E-12 -2.732087E-11  0.000000E+00  0.000000E+00  0.000000E+00  0.000000E+00  0.000000E+00  0.000000E+00  0.000000E+00  0.000000E+00  8.947609E-02  1.361218E-03 -4.874085E-04  8.946441E-02                                                                                                                                                                                                                                                                                                                                                                                                                                                                                              
  6.250000E+02  1.250000E+02 -5.225000E+03  5.449099E-09 -3.037742E-10  1.949843E-10 -5.437130E-09  2.856681E-11 -1.595277E-12  1.023979E-12 -2.850384E-11  0.000000E+00  0.000000E+00  0.000000E+00  0.000000E+00  0.000000E+00  0.000000E+00  0.000000E+00  0.000000E+00  9.009209E-02  1.297113E-03 -5.037572E-04  9.008135E-02                                                                                                                                                                                                                                                                                                                                                                                                                                                                                              
  8.750000E+02  1.250000E+02 -5.225000E+03  5.588416E-09 -1.498362E-10  1.986366E-10 -5.582874E-09  2.929556E-11 -7.868395E-13  1.043112E-12 -2.926641E-11  0.000000E+00  0.000000E+00  0.000000E+00  0.000000E+00  0.000000E+00  0.000000E+00  0.000000E+00  0.000000E+00  9.044516E-02  6.323603E-04 -5.191596E-04  9.044146E-02                                                                                                                                                                                                                                                                                                                                                                                                                                                                                              
  1.050000E+03  1.250000E+02 -5.225000E+03  5.606611E-09  9.090374E-16  1.992212E-10 -5.603071E-09  2.939072E-11  4.773574E-18  1.046176E-12 -2.937209E-11  0.000000E+00  0.000000E+00  0.000000E+00  0.000000E+00  0.000000E+00  0.000000E+00  0.000000E+00  0.000000E+00  9.049481E-02 -7.043010E-09 -5.216474E-04  9.049330E-02                                                                                                                                                                                                                                                                                                                                                                                                                                                                                              
  1.225000E+03  1.250000E+02 -5.225000E+03  5.588411E-09  1.498377E-10  1.986380E-10 -5.582869E-09  2.929554E-11  7.868472E-13  1.043119E-12 -2.926639E-11  0.000000E+00  0.000000E+00  0.000000E+00  0.000000E+00  0.000000E+00  0.000000E+00  0.000000E+00  0.000000E+00  9.044516E-02 -6.323602E-04 -5.191568E-04  9.044146E-02                                                                                                                                                                                                                                                                                                                                                                                                                                                                                              
  1.475000E+03  1.250000E+02 -5.225000E+03  5.449101E-09  3.037747E-10  1.949875E-10 -5.437132E-09  2.856682E-11  1.595280E-12  1.023995E-12 -2.850385E-11  0.000000E+00  0.000000E+00  0.000000E+00  0.000000E+00  0.000000E+00  0.000000E+00  0.000000E+00  0.000000E+00  9.009210E-02 -1.297108E-03 -5.037543E-04  9.008135E-02                                                                                                                                                                                                                                                                                                                                                                                                                                                                                              
  1.725000E+03  1.250000E+02 -5.225000E+03  5.224008E-09  3.134117E-10  1.911459E-10 -5.211094E-09  2.738882E-11  1.645969E-12  1.003885E-12 -2.732088E-11  0.000000E+00  0.000000E+00  0.000000E+00  0.000000E+00  0.000000E+00  0.000000E+00  0.000000E+00  0.000000E+00  8.947609E-02 -1.361221E-03 -4.874024E-04  8.946441E-02                                                                                                                                                                                                                                                                                                                                                                                                                                                                                              
  1.975000E+03  1.250000E+02 -5.225000E+03  4.995215E-09  1.368450E-10  1.886331E-10 -4.989775E-09  2.619086E-11  7.187030E-13  9.907388E-13 -2.616224E-11  0.000000E+00  0.000000E+00  0.000000E+00  0.000000E+00  0.000000E+00  0.000000E+00  0.000000E+00  0.000000E+00  8.877682E-02 -6.013944E-04 -4.763995E-04  8.877351E-02                                                                                                                                                                                                                                                                                                                                                                                                                                                                                              
  1.250000E+02  1.250000E+02 -4.975000E+03  8.625193E-09 -1.495137E-10  1.215691E-10 -8.623040E-09  4.504398E-11 -7.816942E-13  6.356385E-13 -4.503271E-11  0.000000E+00  0.000000E+00  0.000000E+00  0.000000E+00  0.000000E+00  0.000000E+00  0.000000E+00  0.000000E+00  1.557365E-01  1.223750E-03 -6.038882E-04  1.557305E-01                                                                                                                                                                                                                                                                                                                                                                                                                                                                                              
  3.750000E+02  1.250000E+02 -4.975000E+03  9.077343E-09 -3.150999E-10  1.258093E-10 -9.071000E-09  4.739898E-11 -1.647334E-12  6.577468E-13 -4.736578E-11  0.000000E+00  0.000000E+00  0.000000E+00  0.000000E+00  0.000000E+00  0.000000E+00  0.000000E+00  0.000000E+00  1.578834E-01  2.545233E-03 -6.368418E-04  1.578616E-01                                                                                                                                                                                                                                                                                                                                                                                                                                                                                              
  6.250000E+02  1.250000E+02 -4.975000E+03  9.457527E-09 -2.790243E-10  1.322552E-10 -9.452485E-09  4.937856E-11 -1.458612E-12  6.913772E-13 -4.935217E-11  0.000000E+00  0.000000E+00  0.000000E+00  0.000000E+00  0.000000E+00  0.000000E+00  0.000000E+00  0.000000E+00  1.592913E-01  2.192642E-03 -6.841226E-04  1.592747E-01                                                                                                                                                                                                                                                                                                                                                                                                                                                                                              
  8.750000E+02  1.250000E+02 -4.975000E+03  9.696972E-09 -1.357147E-10  1.393392E-10 -9.695021E-09  5.062500E-11 -7.094140E-13  7.283614E-13 -5.061479E-11  0.000000E+00  0.000000E+00  0.000000E+00  0.000000E+00  0.000000E+00  0.000000E+00  0.000000E+00  0.000000E+00  1.600497E-01  1.035555E-03 -7.343787E-04  1.600447E-01                                                                                                                                                                                                                                                                                                                                                                                                                                                                                              
  1.050000E+03  1.250000E+02 -4.975000E+03  9.746334E-09  3.661833E-15  1.411120E-10 -9.745313E-09  5.088192E-11  1.914067E-17  7.376219E-13 -5.087658E-11  0.000000E+00  0.000000E+00  0.000000E+00  0.000000E+00  0.000000E+00  0.000000E+00  0.000000E+00  0.000000E+00  1.602452E-01  9.533274E-10 -7.470508E-04  1.602435E-01                                                                                                                                                                                                                                                                                                                                                                                                                                                                                              
  1.225000E+03  1.250000E+02 -4.975000E+03  9.696971E-09  1.357149E-10  1.393354E-10 -9.695020E-09  5.062499E-11  7.094152E-13  7.283415E-13 -5.061478E-11  0.000000E+00  0.000000E+00  0.000000E+00  0.000000E+00  0.000000E+00  0.000000E+00  0.000000E+00  0.000000E+00  1.600497E-01 -1.035554E-03 -7.343808E-04  1.600447E-01                                                                                                                                                                                                                                                                                                                                                                                                                                                                                              
  1.475000E+03  1.250000E+02 -4.975000E+03  9.457530E-09  2.790225E-10  1.322564E-10 -9.452488E-09  4.937857E-11  1.458603E-12  6.913832E-13 -4.935218E-11  0.000000E+00  0.000000E+00  0.000000E+00  0.000000E+00  0.000000E+00  0.000000E+00  0.000000E+00  0.000000E+00  1.592913E-01 -2.192645E-03 -6.841214E-04  1.592747E-01                                                                                                                                                                                                                                                                                                                                                                                                                                                                                              
  1.725000E+03  1.250000E+02 -4.975000E+03  9.077344E-09  3.151022E-10  1.258096E-10 -9.071001E-09  4.739898E-11  1.647346E-12  6.577483E-13 -4.736578E-11  0.000000E+00  0.000000E+00  0.000000E+00  0.000000E+00  0.000000E+00  0.000000E+00  0.000000E+00  0.000000E+00  1.578834E-01 -2.545233E-03 -6.368388E-04  1.578615E-01                                                                                                                                                                                                                                                                                                                                                                                                                                                                                              
  1.975000E+03  1.250000E+02 -4.975000E+03  8.625193E-09  1.495143E-10  1.215720E-10 -8.623040E-09  4.504398E-11  7.816974E-13  6.356536E-13 -4.503271E-11  0.000000E+00  0.000000E+00  0.000000E+00  0.000000E+00  0.000000E+00  0.000000E+00  0.000000E+00  0.000000E+00  1.557365E-01 -1.223746E-03 -6.038897E-04  1.557305E-01                                                                                                                                                                                                                                                                                                                                                                                                                                                                                              
  1.250000E+02  1.250000E+02 -4.725000E+03  1.076443E-08 -1.625488E-10  6.365896E-11 -1.076301E-08  5.592794E-11 -8.444172E-13  3.307424E-13 -5.592058E-11  0.000000E+00  0.000000E+00  0.000000E+00  0.000000E+00  0.000000E+00  0.000000E+00  0.000000E+00  0.000000E+00  1.967527E-01  2.950410E-03 -8.095974E-04  1.967289E-01                                                                                                                                                                                                                                                                                                                                                                                                                                                                                              
  3.750000E+02  1.250000E+02 -4.725000E+03  1.152412E-08 -3.027647E-10  7.011592E-11 -1.151993E-08  5.985877E-11 -1.572679E-12  3.642147E-13 -5.983699E-11  0.000000E+00  0.000000E+00  0.000000E+00  0.000000E+00  0.000000E+00  0.000000E+00  0.000000E+00  0.000000E+00  2.033468E-01  5.342369E-03 -9.165816E-04  2.032746E-01                                                                                                                                                                                                                                                                                                                                                                                                                                                                                              
  6.250000E+02  1.250000E+02 -4.725000E+03  1.199060E-08 -2.382704E-10  7.961566E-11 -1.198797E-08  6.227152E-11 -1.237474E-12  4.134925E-13 -6.225785E-11  0.000000E+00  0.000000E+00  0.000000E+00  0.000000E+00  0.000000E+00  0.000000E+00  0.000000E+00  0.000000E+00  2.055339E-01  3.842309E-03 -1.055537E-03  2.054952E-01                                                                                                                                                                                                                                                                                                                                                                                                                                                                                              
  8.750000E+02  1.250000E+02 -4.725000E+03  1.230025E-08 -1.334736E-10  9.234828E-11 -1.229918E-08  6.387304E-11 -6.931359E-13  4.795741E-13 -6.386747E-11  0.000000E+00  0.000000E+00  0.000000E+00  0.000000E+00  0.000000E+00  0.000000E+00  0.000000E+00  0.000000E+00  2.066668E-01  1.859828E-03 -1.226861E-03  2.066548E-01                                                                                                                                                                                                                                                                                                                                                                                                                                                                                              
  1.050000E+03  1.250000E+02 -4.725000E+03  1.249171E-08  8.712564E-16  9.942336E-11 -1.249131E-08  6.486348E-11  4.524272E-18  5.163069E-13 -6.486142E-11  0.000000E+00  0.000000E+00  0.000000E+00  0.000000E+00  0.000000E+00  0.000000E+00  0.000000E+00  0.000000E+00  2.080571E-01  6.002267E-10 -1.321641E-03  2.080529E-01                                                                                                                                                                                                                                                                                                                                                                                                                                                                                              
  1.225000E+03  1.250000E+02 -4.725000E+03  1.230026E-08  1.334728E-10  9.234752E-11 -1.229918E-08  6.387305E-11  6.931321E-13  4.795702E-13 -6.386749E-11  0.000000E+00  0.000000E+00  0.000000E+00  0.000000E+00  0.000000E+00  0.000000E+00  0.000000E+00  0.000000E+00  2.066668E-01 -1.859828E-03 -1.226862E-03  2.066548E-01                                                                                                                                                                                                                                                                                                                                                                                                                                                                                              
  1.475000E+03  1.250000E+02 -4.725000E+03  1.199060E-08  2.382697E-10  7.961616E-11 -1.198797E-08  6.227151E-11  1.237470E-12  4.134951E-13 -6.225784E-11  0.000000E+00  0.000000E+00  0.000000E+00  0.000000E+00  0.000000E+00  0.000000E+00  0.000000E+00  0.000000E+00  2.055339E-01 -3.842311E-03 -1.055536E-03  2.054952E-01                                                                                                                                                                                                                                                                                                                                                                                                                                                                                              
  1.725000E+03  1.250000E+02 -4.725000E+03  1.152412E-08  3.027651E-10  7.011681E-11 -1.151993E-08  5.985877E-11  1.572682E-12  3.642193E-13 -5.983699E-11  0.000000E+00  0.000000E+00  0.000000E+00  0.000000E+00  0.000000E+00  0.000000E+00  0.000000E+00  0.000000E+00  2.033468E-01 -5.342370E-03 -9.165788E-04  2.032746E-01                                                                                                                                                                                                                                                                                                                                                                                                                                                                                              