Title="TOUGHREACT V3.30-OMP flowvector.tec: Liq & Gas Fluxes (kg/s/m^2), Pore Velocities (m/s), & Heat Fluxes (J/s/m2)"                                                                                                                                                                                                                                                                                                                                                                                                                                                                                                                                                                                                                                                                                                         
Variables= "X(m)"     "Y(m)"      "Z(m)"     "FluxLiq"   "FluxLiq_X"   "FluxLiq_Y"   "FluxLiq_Z"   "PorVelLiq"  "PorVelLiqX"  "PorVelLiqY"  "PorVelLiqZ"     "FluxGas"   "FluxGas_X"   "FluxGas_Y"   "FluxGas_Z"   "PorVelGas"  "PorVelGasX"  "PorVelGasY"  "PorVelGasZ"    "HeatFlux"  "HeatFlux_X"  "HeatFlux_Y"  "HeatFlux_Z"                                                                                                                                                                                                                                                                                                                                                                                                                                                                                                
Zone T= "1.00000000E+07 sec" I=     9 J=    10 K=    23 F=Point
  1.250000E+02  1.250000E+02 -5.425000E+03  3.291752E-09 -3.586166E-10  2.894547E-10 -3.259331E-09  1.787313E-11 -1.951811E-12  1.575471E-12 -1.769625E-11  0.000000E+00  0.000000E+00  0.000000E+00  0.000000E+00  0.000000E+00  0.000000E+00  0.000000E+00  0.000000E+00  5.900516E-02  5.936854E-04 -4.606489E-05  5.900215E-02                                                                                                                                                                                                                                                                                                                                                                                                                                                                                              
  3.750000E+02  1.250000E+02 -5.425000E+03  3.517234E-09 -8.387296E-10  2.944606E-10 -3.403052E-09  1.909778E-11 -4.564640E-12  1.602591E-12 -1.847487E-11  0.000000E+00  0.000000E+00  0.000000E+00  0.000000E+00  0.000000E+00  0.000000E+00  0.000000E+00  0.000000E+00  5.927730E-02  1.359530E-03 -5.992027E-05  5.926167E-02                                                                                                                                                                                                                                                                                                                                                                                                                                                                                              
  6.250000E+02  1.250000E+02 -5.425000E+03  3.665596E-09 -8.299569E-10  3.021416E-10 -3.557594E-09  1.990079E-11 -4.516547E-12  1.644225E-12 -1.931162E-11  0.000000E+00  0.000000E+00  0.000000E+00  0.000000E+00  0.000000E+00  0.000000E+00  0.000000E+00  0.000000E+00  5.953878E-02  1.306696E-03 -8.081995E-05  5.952439E-02                                                                                                                                                                                                                                                                                                                                                                                                                                                                                              
  8.750000E+02  1.250000E+02 -5.425000E+03  3.692254E-09 -4.114585E-10  3.088572E-10 -3.656234E-09  2.004194E-11 -2.238988E-12  1.680647E-12 -1.984545E-11  0.000000E+00  0.000000E+00  0.000000E+00  0.000000E+00  0.000000E+00  0.000000E+00  0.000000E+00  0.000000E+00  5.968915E-02  6.355851E-04 -9.867640E-05  5.968568E-02                                                                                                                                                                                                                                                                                                                                                                                                                                                                                              
  1.050000E+03  1.250000E+02 -5.425000E+03  3.681671E-09 -6.825725E-15  3.097662E-10 -3.668617E-09  1.998367E-11 -3.714148E-17  1.685578E-12 -1.991246E-11  0.000000E+00  0.000000E+00  0.000000E+00  0.000000E+00  0.000000E+00  0.000000E+00  0.000000E+00  0.000000E+00  5.970616E-02 -1.618396E-09 -1.010462E-04  5.970608E-02                                                                                                                                                                                                                                                                                                                                                                                                                                                                                              
  1.225000E+03  1.250000E+02 -5.425000E+03  3.692249E-09  4.114679E-10  3.088652E-10 -3.656228E-09  2.004192E-11  2.239039E-12  1.680690E-12 -1.984542E-11  0.000000E+00  0.000000E+00  0.000000E+00  0.000000E+00  0.000000E+00  0.000000E+00  0.000000E+00  0.000000E+00  5.968915E-02 -6.355831E-04 -9.867087E-05  5.968568E-02                                                                                                                                                                                                                                                                                                                                                                                                                                                                                              
  1.475000E+03  1.250000E+02 -5.425000E+03  3.665619E-09  8.299813E-10  3.021344E-10 -3.557613E-09  1.990092E-11  4.516680E-12  1.644185E-12 -1.931173E-11  0.000000E+00  0.000000E+00  0.000000E+00  0.000000E+00  0.000000E+00  0.000000E+00  0.000000E+00  0.000000E+00  5.953877E-02 -1.306703E-03 -8.082901E-05  5.952437E-02                                                                                                                                                                                                                                                                                                                                                                                                                                                                                              
  1.725000E+03  1.250000E+02 -5.425000E+03  3.517244E-09  8.387413E-10  2.944398E-10 -3.403061E-09  1.909783E-11  4.564703E-12  1.602478E-12 -1.847492E-11  0.000000E+00  0.000000E+00  0.000000E+00  0.000000E+00  0.000000E+00  0.000000E+00  0.000000E+00  0.000000E+00  5.927730E-02 -1.359544E-03 -5.991291E-05  5.926167E-02                                                                                                                                                                                                                                                                                                                                                                                                                                                                                              
  1.975000E+03  1.250000E+02 -5.425000E+03  3.291760E-09  3.586202E-10  2.894485E-10 -3.259340E-09  1.787318E-11  1.951830E-12  1.575437E-12 -1.769629E-11  0.000000E+00  0.000000E+00  0.000000E+00  0.000000E+00  0.000000E+00  0.000000E+00  0.000000E+00  0.000000E+00  5.900519E-02 -5.936884E-04 -4.605031E-05  5.900218E-02                                                                                                                                                                                                                                                                                                                                                                                                                                                                                              
  1.250000E+02  1.250000E+02 -5.225000E+03  1.156793E-08 -2.859228E-10  2.432539E-10 -1.156184E-08  6.241070E-11 -1.549509E-12  1.318361E-12 -6.237753E-11  0.000000E+00  0.000000E+00  0.000000E+00  0.000000E+00  0.000000E+00  0.000000E+00  0.000000E+00  0.000000E+00  2.118172E-01  9.435611E-04 -1.739396E-04  2.118150E-01                                                                                                                                                                                                                                                                                                                                                                                                                                                                                              
  3.750000E+02  1.250000E+02 -5.225000E+03  1.207301E-08 -6.517566E-10  2.473019E-10 -1.205287E-08  6.512796E-11 -3.531850E-12  1.340161E-12 -6.501831E-11  0.000000E+00  0.000000E+00  0.000000E+00  0.000000E+00  0.000000E+00  0.000000E+00  0.000000E+00  0.000000E+00  2.130407E-01  2.100365E-03 -1.944101E-04  2.130302E-01                                                                                                                                                                                                                                                                                                                                                                                                                                                                                              
  6.250000E+02  1.250000E+02 -5.225000E+03  1.256464E-08 -6.273041E-10  2.536623E-10 -1.254641E-08  6.777037E-11 -3.399014E-12  1.374454E-12 -6.767112E-11  0.000000E+00  0.000000E+00  0.000000E+00  0.000000E+00  0.000000E+00  0.000000E+00  0.000000E+00  0.000000E+00  2.141295E-01  1.954006E-03 -2.254144E-04  2.141205E-01                                                                                                                                                                                                                                                                                                                                                                                                                                                                                              
  8.750000E+02  1.250000E+02 -5.225000E+03  1.286368E-08 -3.078141E-10  2.597749E-10 -1.285737E-08  6.937608E-11 -1.667755E-12  1.407451E-12 -6.934175E-11  0.000000E+00  0.000000E+00  0.000000E+00  0.000000E+00  0.000000E+00  0.000000E+00  0.000000E+00  0.000000E+00  2.147619E-01  9.376296E-04 -2.536728E-04  2.147597E-01                                                                                                                                                                                                                                                                                                                                                                                                                                                                                              
  1.050000E+03  1.250000E+02 -5.225000E+03  1.290202E-08  7.608372E-16  2.607297E-10 -1.289939E-08  6.958178E-11  4.122086E-18  1.412608E-12 -6.956744E-11  0.000000E+00  0.000000E+00  0.000000E+00  0.000000E+00  0.000000E+00  0.000000E+00  0.000000E+00  0.000000E+00  2.148497E-01 -7.899120E-11 -2.579607E-04  2.148495E-01                                                                                                                                                                                                                                                                                                                                                                                                                                                                                              
  1.225000E+03  1.250000E+02 -5.225000E+03  1.286367E-08  3.078093E-10  2.597819E-10 -1.285737E-08  6.937604E-11  1.667728E-12  1.407489E-12 -6.934170E-11  0.000000E+00  0.000000E+00  0.000000E+00  0.000000E+00  0.000000E+00  0.000000E+00  0.000000E+00  0.000000E+00  2.147619E-01 -9.376384E-04 -2.536714E-04  2.147597E-01                                                                                                                                                                                                                                                                                                                                                                                                                                                                                              
  1.475000E+03  1.250000E+02 -5.225000E+03  1.256466E-08  6.273117E-10  2.536721E-10 -1.254642E-08  6.777044E-11  3.399055E-12  1.374507E-12 -6.767119E-11  0.000000E+00  0.000000E+00  0.000000E+00  0.000000E+00  0.000000E+00  0.000000E+00  0.000000E+00  0.000000E+00  2.141295E-01 -1.954018E-03 -2.254208E-04  2.141205E-01                                                                                                                                                                                                                                                                                                                                                                                                                                                                                              
  1.725000E+03  1.250000E+02 -5.225000E+03  1.207302E-08  6.517748E-10  2.472920E-10 -1.205287E-08  6.512800E-11  3.531949E-12  1.340108E-12 -6.501835E-11  0.000000E+00  0.000000E+00  0.000000E+00  0.000000E+00  0.000000E+00  0.000000E+00  0.000000E+00  0.000000E+00  2.130407E-01 -2.100349E-03 -1.944056E-04  2.130303E-01                                                                                                                                                                                                                                                                                                                                                                                                                                                                                              
  1.975000E+03  1.250000E+02 -5.225000E+03  1.156795E-08  2.859277E-10  2.432470E-10 -1.156186E-08  6.241079E-11  1.549535E-12  1.318323E-12 -6.237762E-11  0.000000E+00  0.000000E+00  0.000000E+00  0.000000E+00  0.000000E+00  0.000000E+00  0.000000E+00  0.000000E+00  2.118172E-01 -9.435419E-04 -1.739487E-04  2.118150E-01                                                                                                                                                                                                                                                                                                                                                                                                                                                                                              
  1.250000E+02  1.250000E+02 -4.975000E+03  2.014195E-08 -2.795778E-10  1.776204E-10 -2.013923E-08  1.073990E-10 -1.494708E-12  9.497299E-13 -1.073844E-10  0.000000E+00  0.000000E+00  0.000000E+00  0.000000E+00  0.000000E+00  0.000000E+00  0.000000E+00  0.000000E+00  3.809064E-01  2.142296E-03 -5.288665E-04  3.809000E-01                                                                                                                                                                                                                                                                                                                                                                                                                                                                                              
  3.750000E+02  1.250000E+02 -4.975000E+03  2.108308E-08 -5.848740E-10  1.828739E-10 -2.107417E-08  1.123877E-10 -3.126586E-12  9.776304E-13 -1.123400E-10  0.000000E+00  0.000000E+00  0.000000E+00  0.000000E+00  0.000000E+00  0.000000E+00  0.000000E+00  0.000000E+00  3.846711E-01  4.404059E-03 -5.758264E-04  3.846455E-01                                                                                                                                                                                                                                                                                                                                                                                                                                                                                              
  6.250000E+02  1.250000E+02 -4.975000E+03  2.187391E-08 -5.119161E-10  1.913614E-10 -2.186709E-08  1.165786E-10 -2.736119E-12  1.022795E-12 -1.165420E-10  0.000000E+00  0.000000E+00  0.000000E+00  0.000000E+00  0.000000E+00  0.000000E+00  0.000000E+00  0.000000E+00  3.870890E-01  3.723404E-03 -6.457808E-04  3.870706E-01                                                                                                                                                                                                                                                                                                                                                                                                                                                                                              
  8.750000E+02  1.250000E+02 -4.975000E+03  2.236123E-08 -2.466127E-10  2.011313E-10 -2.235897E-08  1.191598E-10 -1.317958E-12  1.074873E-12 -1.191477E-10  0.000000E+00  0.000000E+00  0.000000E+00  0.000000E+00  0.000000E+00  0.000000E+00  0.000000E+00  0.000000E+00  3.883721E-01  1.735013E-03 -7.200288E-04  3.883676E-01                                                                                                                                                                                                                                                                                                                                                                                                                                                                                              
  1.050000E+03  1.250000E+02 -4.975000E+03  2.245366E-08  2.848550E-15  2.035734E-10 -2.245274E-08  1.196490E-10  1.522241E-17  1.087906E-12 -1.196440E-10  0.000000E+00  0.000000E+00  0.000000E+00  0.000000E+00  0.000000E+00  0.000000E+00  0.000000E+00  0.000000E+00  3.886886E-01 -7.477771E-09 -7.378737E-04  3.886879E-01                                                                                                                                                                                                                                                                                                                                                                                                                                                                                              
  1.225000E+03  1.250000E+02 -4.975000E+03  2.236123E-08  2.466147E-10  2.011275E-10 -2.235896E-08  1.191598E-10  1.317969E-12  1.074853E-12 -1.191476E-10  0.000000E+00  0.000000E+00  0.000000E+00  0.000000E+00  0.000000E+00  0.000000E+00  0.000000E+00  0.000000E+00  3.883721E-01 -1.735015E-03 -7.200287E-04  3.883676E-01                                                                                                                                                                                                                                                                                                                                                                                                                                                                                              
  1.475000E+03  1.250000E+02 -4.975000E+03  2.187391E-08  5.119210E-10  1.913580E-10 -2.186708E-08  1.165786E-10  2.736145E-12  1.022777E-12 -1.165420E-10  0.000000E+00  0.000000E+00  0.000000E+00  0.000000E+00  0.000000E+00  0.000000E+00  0.000000E+00  0.000000E+00  3.870890E-01 -3.723403E-03 -6.457855E-04  3.870706E-01                                                                                                                                                                                                                                                                                                                                                                                                                                                                                              
  1.725000E+03  1.250000E+02 -4.975000E+03  2.108308E-08  5.848766E-10  1.828700E-10 -2.107417E-08  1.123877E-10  3.126600E-12  9.776094E-13 -1.123400E-10  0.000000E+00  0.000000E+00  0.000000E+00  0.000000E+00  0.000000E+00  0.000000E+00  0.000000E+00  0.000000E+00  3.846712E-01 -4.404052E-03 -5.758212E-04  3.846455E-01                                                                                                                                                                                                                                                                                                                                                                                                                                                                                              
  1.975000E+03  1.250000E+02 -4.975000E+03  2.014196E-08  2.795747E-10  1.776166E-10 -2.013924E-08  1.073991E-10  1.494692E-12  9.497092E-13 -1.073845E-10  0.000000E+00  0.000000E+00  0.000000E+00  0.000000E+00  0.000000E+00  0.000000E+00  0.000000E+00  0.000000E+00  3.809064E-01 -2.142285E-03 -5.288871E-04  3.809000E-01                                                                                                                                                                                                                                                                                                                                                                                                                                                                                              
  1.250000E+02  1.250000E+02 -4.725000E+03  2.489995E-08 -2.775181E-10  9.908136E-11 -2.489820E-08  1.308266E-10 -1.456574E-12  5.201605E-13 -1.308174E-10  0.000000E+00  0.000000E+00  0.000000E+00  0.000000E+00  0.000000E+00  0.000000E+00  0.000000E+00  0.000000E+00  4.933925E-01  5.260453E-03 -1.085000E-03  4.933632E-01                                                                                                                                                                                                                                                                                                                                                                                                                                                                                              
  3.750000E+02  1.250000E+02 -4.725000E+03  2.636955E-08 -5.098972E-10  1.065632E-10 -2.636440E-08  1.384767E-10 -2.675789E-12  5.592151E-13 -1.384497E-10  0.000000E+00  0.000000E+00  0.000000E+00  0.000000E+00  0.000000E+00  0.000000E+00  0.000000E+00  0.000000E+00  5.049200E-01  9.419693E-03 -1.221184E-03  5.048307E-01                                                                                                                                                                                                                                                                                                                                                                                                                                                                                              
  6.250000E+02  1.250000E+02 -4.725000E+03  2.728580E-08 -3.920109E-10  1.185973E-10 -2.728273E-08  1.432460E-10 -2.056533E-12  6.221720E-13 -1.432299E-10  0.000000E+00  0.000000E+00  0.000000E+00  0.000000E+00  0.000000E+00  0.000000E+00  0.000000E+00  0.000000E+00  5.083910E-01  6.627388E-03 -1.406200E-03  5.083459E-01                                                                                                                                                                                                                                                                                                                                                                                                                                                                                              
  8.750000E+02  1.250000E+02 -4.725000E+03  2.787469E-08 -2.157853E-10  1.354452E-10 -2.787353E-08  1.463109E-10 -1.131827E-12  7.104289E-13 -1.463047E-10  0.000000E+00  0.000000E+00  0.000000E+00  0.000000E+00  0.000000E+00  0.000000E+00  0.000000E+00  0.000000E+00  5.100890E-01  3.141857E-03 -1.639519E-03  5.100766E-01                                                                                                                                                                                                                                                                                                                                                                                                                                                                                              
  1.050000E+03  1.250000E+02 -4.725000E+03  2.818603E-08  3.745445E-15  1.446556E-10 -2.818566E-08  1.479299E-10  1.964372E-17  7.587148E-13 -1.479279E-10  0.000000E+00  0.000000E+00  0.000000E+00  0.000000E+00  0.000000E+00  0.000000E+00  0.000000E+00  0.000000E+00  5.122449E-01  3.957945E-09 -1.766493E-03  5.122419E-01                                                                                                                                                                                                                                                                                                                                                                                                                                                                                              
  1.225000E+03  1.250000E+02 -4.725000E+03  2.787470E-08  2.157894E-10  1.354430E-10 -2.787353E-08  1.463109E-10  1.131848E-12  7.104174E-13 -1.463048E-10  0.000000E+00  0.000000E+00  0.000000E+00  0.000000E+00  0.000000E+00  0.000000E+00  0.000000E+00  0.000000E+00  5.100890E-01 -3.141854E-03 -1.639520E-03  5.100766E-01                                                                                                                                                                                                                                                                                                                                                                                                                                                                                              
  1.475000E+03  1.250000E+02 -4.725000E+03  2.728581E-08  3.920114E-10  1.185934E-10 -2.728273E-08  1.432460E-10  2.056536E-12  6.221518E-13 -1.432299E-10  0.000000E+00  0.000000E+00  0.000000E+00  0.000000E+00  0.000000E+00  0.000000E+00  0.000000E+00  0.000000E+00  5.083910E-01 -6.627389E-03 -1.406204E-03  5.083459E-01                                                                                                                                                                                                                                                                                                                                                                                                                                                                                              
  1.725000E+03  1.250000E+02 -4.725000E+03  2.636955E-08  5.098955E-10  1.065612E-10 -2.636441E-08  1.384767E-10  2.675781E-12  5.592047E-13 -1.384497E-10  0.000000E+00  0.000000E+00  0.000000E+00  0.000000E+00  0.000000E+00  0.000000E+00  0.000000E+00  0.000000E+00  5.049200E-01 -9.419693E-03 -1.221190E-03  5.048307E-01                                                                                                                                                                                                                                                                                                                                                                                                                                                                                              