Title="TOUGHREACT V3.30-OMP flowvector.tec: Liq & Gas Fluxes (kg/s/m^2), Pore Velocities (m/s), & Heat Fluxes (J/s/m2)"                                                                                                                                                                                                                                                                                                                                                                                                                                                                                                                                                                                                                                                                                                         
Variables= "X(m)"     "Y(m)"      "Z(m)"     "FluxLiq"   "FluxLiq_X"   "FluxLiq_Y"   "FluxLiq_Z"   "PorVelLiq"  "PorVelLiqX"  "PorVelLiqY"  "PorVelLiqZ"     "FluxGas"   "FluxGas_X"   "FluxGas_Y"   "FluxGas_Z"   "PorVelGas"  "PorVelGasX"  "PorVelGasY"  "PorVelGasZ"    "HeatFlux"  "HeatFlux_X"  "HeatFlux_Y"  "HeatFlux_Z"                                                                                                                                                                                                                                                                                                                                                                                                                                                                                                
Zone T= "1.00000000E+06 sec" I=     9 J=    10 K=    23 F=Point
  1.250000E+02  1.250000E+02 -5.425000E+03  3.291826E-09 -3.586303E-10  2.894410E-10 -3.259405E-09  1.787357E-11 -1.951890E-12  1.575400E-12 -1.769669E-11  0.000000E+00  0.000000E+00  0.000000E+00  0.000000E+00  0.000000E+00  0.000000E+00  0.000000E+00  0.000000E+00  5.900662E-02  5.936732E-04 -4.602774E-05  5.900362E-02                                                                                                                                                                                                                                                                                                                                                                                                                                                                                              
  3.750000E+02  1.250000E+02 -5.425000E+03  3.517318E-09 -8.387580E-10  2.944551E-10 -3.403132E-09  1.909827E-11 -4.564805E-12  1.602564E-12 -1.847535E-11  0.000000E+00  0.000000E+00  0.000000E+00  0.000000E+00  0.000000E+00  0.000000E+00  0.000000E+00  0.000000E+00  5.927877E-02  1.359498E-03 -5.987928E-05  5.926315E-02                                                                                                                                                                                                                                                                                                                                                                                                                                                                                              
  6.250000E+02  1.250000E+02 -5.425000E+03  3.665678E-09 -8.299797E-10  3.021381E-10 -3.557674E-09  1.990128E-11 -4.516681E-12  1.644209E-12 -1.931210E-11  0.000000E+00  0.000000E+00  0.000000E+00  0.000000E+00  0.000000E+00  0.000000E+00  0.000000E+00  0.000000E+00  5.954028E-02  1.306659E-03 -8.078084E-05  5.952588E-02                                                                                                                                                                                                                                                                                                                                                                                                                                                                                              
  8.750000E+02  1.250000E+02 -5.425000E+03  3.692335E-09 -4.114680E-10  3.088514E-10 -3.656316E-09  2.004243E-11 -2.239045E-12  1.680619E-12 -1.984594E-11  0.000000E+00  0.000000E+00  0.000000E+00  0.000000E+00  0.000000E+00  0.000000E+00  0.000000E+00  0.000000E+00  5.969066E-02  6.355653E-04 -9.864180E-05  5.968719E-02                                                                                                                                                                                                                                                                                                                                                                                                                                                                                              
  1.050000E+03  1.250000E+02 -5.425000E+03  3.681760E-09 -1.019668E-14  3.097578E-10 -3.668707E-09  1.998420E-11 -5.548428E-17  1.685536E-12 -1.991299E-11  0.000000E+00  0.000000E+00  0.000000E+00  0.000000E+00  0.000000E+00  0.000000E+00  0.000000E+00  0.000000E+00  5.970767E-02 -3.984592E-09 -1.010142E-04  5.970758E-02                                                                                                                                                                                                                                                                                                                                                                                                                                                                                              
  1.225000E+03  1.250000E+02 -5.425000E+03  3.692328E-09  4.114817E-10  3.088602E-10 -3.656306E-09  2.004239E-11  2.239119E-12  1.680667E-12 -1.984588E-11  0.000000E+00  0.000000E+00  0.000000E+00  0.000000E+00  0.000000E+00  0.000000E+00  0.000000E+00  0.000000E+00  5.969066E-02 -6.355601E-04 -9.863579E-05  5.968719E-02                                                                                                                                                                                                                                                                                                                                                                                                                                                                                              
  1.475000E+03  1.250000E+02 -5.425000E+03  3.665707E-09  8.300054E-10  3.021261E-10 -3.557699E-09  1.990144E-11  4.516821E-12  1.644144E-12 -1.931223E-11  0.000000E+00  0.000000E+00  0.000000E+00  0.000000E+00  0.000000E+00  0.000000E+00  0.000000E+00  0.000000E+00  5.954026E-02 -1.306665E-03 -8.079347E-05  5.952587E-02                                                                                                                                                                                                                                                                                                                                                                                                                                                                                              
  1.725000E+03  1.250000E+02 -5.425000E+03  3.517316E-09  8.387632E-10  2.944345E-10 -3.403130E-09  1.909826E-11  4.564832E-12  1.602452E-12 -1.847534E-11  0.000000E+00  0.000000E+00  0.000000E+00  0.000000E+00  0.000000E+00  0.000000E+00  0.000000E+00  0.000000E+00  5.927878E-02 -1.359517E-03 -5.987135E-05  5.926316E-02                                                                                                                                                                                                                                                                                                                                                                                                                                                                                              
  1.975000E+03  1.250000E+02 -5.425000E+03  3.291823E-09  3.586336E-10  2.894424E-10 -3.259402E-09  1.787355E-11  1.951908E-12  1.575408E-12 -1.769667E-11  0.000000E+00  0.000000E+00  0.000000E+00  0.000000E+00  0.000000E+00  0.000000E+00  0.000000E+00  0.000000E+00  5.900666E-02 -5.936763E-04 -4.600729E-05  5.900366E-02                                                                                                                                                                                                                                                                                                                                                                                                                                                                                              
  1.250000E+02  1.250000E+02 -5.225000E+03  1.156790E-08 -2.859356E-10  2.432535E-10 -1.156180E-08  6.241063E-11 -1.549582E-12  1.318361E-12 -6.237746E-11  0.000000E+00  0.000000E+00  0.000000E+00  0.000000E+00  0.000000E+00  0.000000E+00  0.000000E+00  0.000000E+00  2.118236E-01  9.435651E-04 -1.738978E-04  2.118214E-01                                                                                                                                                                                                                                                                                                                                                                                                                                                                                              
  3.750000E+02  1.250000E+02 -5.225000E+03  1.207300E-08 -6.517776E-10  2.473160E-10 -1.205285E-08  6.512804E-11 -3.531972E-12  1.340240E-12 -6.501838E-11  0.000000E+00  0.000000E+00  0.000000E+00  0.000000E+00  0.000000E+00  0.000000E+00  0.000000E+00  0.000000E+00  2.130472E-01  2.100372E-03 -1.943602E-04  2.130367E-01                                                                                                                                                                                                                                                                                                                                                                                                                                                                                              
  6.250000E+02  1.250000E+02 -5.225000E+03  1.256465E-08 -6.273180E-10  2.536623E-10 -1.254641E-08  6.777054E-11 -3.399096E-12  1.374456E-12 -6.767129E-11  0.000000E+00  0.000000E+00  0.000000E+00  0.000000E+00  0.000000E+00  0.000000E+00  0.000000E+00  0.000000E+00  2.141361E-01  1.954005E-03 -2.253791E-04  2.141270E-01                                                                                                                                                                                                                                                                                                                                                                                                                                                                                              
  8.750000E+02  1.250000E+02 -5.225000E+03  1.286370E-08 -3.078307E-10  2.597715E-10 -1.285739E-08  6.937632E-11 -1.667848E-12  1.407436E-12 -6.934198E-11  0.000000E+00  0.000000E+00  0.000000E+00  0.000000E+00  0.000000E+00  0.000000E+00  0.000000E+00  0.000000E+00  2.147685E-01  9.376183E-04 -2.536437E-04  2.147663E-01                                                                                                                                                                                                                                                                                                                                                                                                                                                                                              
  1.050000E+03  1.250000E+02 -5.225000E+03  1.290205E-08  1.204100E-15  2.607366E-10 -1.289941E-08  6.958207E-11  6.523617E-18  1.412649E-12 -6.956773E-11  0.000000E+00  0.000000E+00  0.000000E+00  0.000000E+00  0.000000E+00  0.000000E+00  0.000000E+00  0.000000E+00  2.148562E-01  2.811683E-10 -2.579243E-04  2.148561E-01                                                                                                                                                                                                                                                                                                                                                                                                                                                                                              
  1.225000E+03  1.250000E+02 -5.225000E+03  1.286369E-08  3.078265E-10  2.597786E-10 -1.285738E-08  6.937627E-11  1.667825E-12  1.407474E-12 -6.934194E-11  0.000000E+00  0.000000E+00  0.000000E+00  0.000000E+00  0.000000E+00  0.000000E+00  0.000000E+00  0.000000E+00  2.147685E-01 -9.376263E-04 -2.536425E-04  2.147663E-01                                                                                                                                                                                                                                                                                                                                                                                                                                                                                              
  1.475000E+03  1.250000E+02 -5.225000E+03  1.256467E-08  6.273331E-10  2.536751E-10 -1.254644E-08  6.777067E-11  3.399178E-12  1.374526E-12 -6.767141E-11  0.000000E+00  0.000000E+00  0.000000E+00  0.000000E+00  0.000000E+00  0.000000E+00  0.000000E+00  0.000000E+00  2.141361E-01 -1.954012E-03 -2.253836E-04  2.141270E-01                                                                                                                                                                                                                                                                                                                                                                                                                                                                                              
  1.725000E+03  1.250000E+02 -5.225000E+03  1.207300E-08  6.518035E-10  2.472903E-10 -1.205285E-08  6.512803E-11  3.532112E-12  1.340101E-12 -6.501837E-11  0.000000E+00  0.000000E+00  0.000000E+00  0.000000E+00  0.000000E+00  0.000000E+00  0.000000E+00  0.000000E+00  2.130472E-01 -2.100351E-03 -1.943674E-04  2.130367E-01                                                                                                                                                                                                                                                                                                                                                                                                                                                                                              
  1.975000E+03  1.250000E+02 -5.225000E+03  1.156791E-08  2.859411E-10  2.432396E-10 -1.156181E-08  6.241069E-11  1.549611E-12  1.318286E-12 -6.237752E-11  0.000000E+00  0.000000E+00  0.000000E+00  0.000000E+00  0.000000E+00  0.000000E+00  0.000000E+00  0.000000E+00  2.118236E-01 -9.435455E-04 -1.739119E-04  2.118215E-01                                                                                                                                                                                                                                                                                                                                                                                                                                                                                              
  1.250000E+02  1.250000E+02 -4.975000E+03  2.013484E-08 -2.795950E-10  1.776247E-10 -2.013212E-08  1.073615E-10 -1.494802E-12  9.497539E-13 -1.073469E-10  0.000000E+00  0.000000E+00  0.000000E+00  0.000000E+00  0.000000E+00  0.000000E+00  0.000000E+00  0.000000E+00  3.809249E-01  2.142348E-03 -5.288431E-04  3.809185E-01                                                                                                                                                                                                                                                                                                                                                                                                                                                                                              
  3.750000E+02  1.250000E+02 -4.975000E+03  2.107611E-08 -5.849001E-10  1.828801E-10 -2.106720E-08  1.123510E-10 -3.126730E-12  9.776649E-13 -1.123032E-10  0.000000E+00  0.000000E+00  0.000000E+00  0.000000E+00  0.000000E+00  0.000000E+00  0.000000E+00  0.000000E+00  3.846896E-01  4.404164E-03 -5.758058E-04  3.846640E-01                                                                                                                                                                                                                                                                                                                                                                                                                                                                                              
  6.250000E+02  1.250000E+02 -4.975000E+03  2.186704E-08 -5.119326E-10  1.913621E-10 -2.186021E-08  1.165424E-10 -2.736211E-12  1.022801E-12 -1.165058E-10  0.000000E+00  0.000000E+00  0.000000E+00  0.000000E+00  0.000000E+00  0.000000E+00  0.000000E+00  0.000000E+00  3.871076E-01  3.723484E-03 -6.457698E-04  3.870891E-01                                                                                                                                                                                                                                                                                                                                                                                                                                                                                              
  8.750000E+02  1.250000E+02 -4.975000E+03  2.235441E-08 -2.466289E-10  2.011324E-10 -2.235215E-08  1.191239E-10 -1.318047E-12  1.074881E-12 -1.191117E-10  0.000000E+00  0.000000E+00  0.000000E+00  0.000000E+00  0.000000E+00  0.000000E+00  0.000000E+00  0.000000E+00  3.883907E-01  1.735040E-03 -7.200239E-04  3.883861E-01                                                                                                                                                                                                                                                                                                                                                                                                                                                                                              
  1.050000E+03  1.250000E+02 -4.975000E+03  2.244685E-08 -1.671177E-15  2.035811E-10 -2.244593E-08  1.196131E-10 -8.930547E-18  1.087949E-12 -1.196081E-10  0.000000E+00  0.000000E+00  0.000000E+00  0.000000E+00  0.000000E+00  0.000000E+00  0.000000E+00  0.000000E+00  3.887072E-01 -1.069818E-08 -7.378653E-04  3.887065E-01                                                                                                                                                                                                                                                                                                                                                                                                                                                                                              
  1.225000E+03  1.250000E+02 -4.975000E+03  2.235441E-08  2.466248E-10  2.011330E-10 -2.235215E-08  1.191239E-10  1.318025E-12  1.074884E-12 -1.191117E-10  0.000000E+00  0.000000E+00  0.000000E+00  0.000000E+00  0.000000E+00  0.000000E+00  0.000000E+00  0.000000E+00  3.883907E-01 -1.735047E-03 -7.200205E-04  3.883861E-01                                                                                                                                                                                                                                                                                                                                                                                                                                                                                              
  1.475000E+03  1.250000E+02 -4.975000E+03  2.186704E-08  5.119464E-10  1.913625E-10 -2.186020E-08  1.165424E-10  2.736285E-12  1.022803E-12 -1.165057E-10  0.000000E+00  0.000000E+00  0.000000E+00  0.000000E+00  0.000000E+00  0.000000E+00  0.000000E+00  0.000000E+00  3.871076E-01 -3.723477E-03 -6.457719E-04  3.870891E-01                                                                                                                                                                                                                                                                                                                                                                                                                                                                                              
  1.725000E+03  1.250000E+02 -4.975000E+03  2.107612E-08  5.849079E-10  1.828676E-10 -2.106721E-08  1.123510E-10  3.126772E-12  9.775981E-13 -1.123032E-10  0.000000E+00  0.000000E+00  0.000000E+00  0.000000E+00  0.000000E+00  0.000000E+00  0.000000E+00  0.000000E+00  3.846896E-01 -4.404154E-03 -5.758065E-04  3.846640E-01                                                                                                                                                                                                                                                                                                                                                                                                                                                                                              
  1.975000E+03  1.250000E+02 -4.975000E+03  2.013486E-08  2.795866E-10  1.776184E-10 -2.013214E-08  1.073616E-10  1.494758E-12  9.497202E-13 -1.073470E-10  0.000000E+00  0.000000E+00  0.000000E+00  0.000000E+00  0.000000E+00  0.000000E+00  0.000000E+00  0.000000E+00  3.809248E-01 -2.142341E-03 -5.288654E-04  3.809185E-01                                                                                                                                                                                                                                                                                                                                                                                                                                                                                              
  1.250000E+02  1.250000E+02 -4.725000E+03  2.476898E-08 -2.775993E-10  9.909444E-11 -2.476723E-08  1.301431E-10 -1.457002E-12  5.202294E-13 -1.301339E-10  0.000000E+00  0.000000E+00  0.000000E+00  0.000000E+00  0.000000E+00  0.000000E+00  0.000000E+00  0.000000E+00  4.934778E-01  5.260571E-03 -1.085013E-03  4.934486E-01                                                                                                                                                                                                                                                                                                                                                                                                                                                                                              
  3.750000E+02  1.250000E+02 -4.725000E+03  2.623994E-08 -5.100235E-10  1.065790E-10 -2.623477E-08  1.378008E-10 -2.676454E-12  5.592982E-13 -1.377736E-10  0.000000E+00  0.000000E+00  0.000000E+00  0.000000E+00  0.000000E+00  0.000000E+00  0.000000E+00  0.000000E+00  5.050044E-01  9.419908E-03 -1.221202E-03  5.049151E-01                                                                                                                                                                                                                                                                                                                                                                                                                                                                                              
  6.250000E+02  1.250000E+02 -4.725000E+03  2.715686E-08 -3.920804E-10  1.186165E-10 -2.715377E-08  1.425738E-10 -2.056899E-12  6.222732E-13 -1.425576E-10  0.000000E+00  0.000000E+00  0.000000E+00  0.000000E+00  0.000000E+00  0.000000E+00  0.000000E+00  0.000000E+00  5.084749E-01  6.627537E-03 -1.406225E-03  5.084298E-01                                                                                                                                                                                                                                                                                                                                                                                                                                                                                              
  8.750000E+02  1.250000E+02 -4.725000E+03  2.774613E-08 -2.158267E-10  1.354688E-10 -2.774496E-08  1.456407E-10 -1.132044E-12  7.105531E-13 -1.456346E-10  0.000000E+00  0.000000E+00  0.000000E+00  0.000000E+00  0.000000E+00  0.000000E+00  0.000000E+00  0.000000E+00  5.101725E-01  3.141913E-03 -1.639554E-03  5.101602E-01                                                                                                                                                                                                                                                                                                                                                                                                                                                                                              
  1.050000E+03  1.250000E+02 -4.725000E+03  2.805767E-08  9.277087E-16  1.446838E-10 -2.805730E-08  1.472608E-10  4.865543E-18  7.588631E-13 -1.472589E-10  0.000000E+00  0.000000E+00  0.000000E+00  0.000000E+00  0.000000E+00  0.000000E+00  0.000000E+00  0.000000E+00  5.123283E-01  2.192493E-09 -1.766532E-03  5.123253E-01                                                                                                                                                                                                                                                                                                                                                                                                                                                                                              
  1.225000E+03  1.250000E+02 -4.725000E+03  2.774613E-08  2.158304E-10  1.354668E-10 -2.774496E-08  1.456407E-10  1.132064E-12  7.105427E-13 -1.456345E-10  0.000000E+00  0.000000E+00  0.000000E+00  0.000000E+00  0.000000E+00  0.000000E+00  0.000000E+00  0.000000E+00  5.101725E-01 -3.141912E-03 -1.639555E-03  5.101602E-01                                                                                                                                                                                                                                                                                                                                                                                                                                                                                              
  1.475000E+03  1.250000E+02 -4.725000E+03  2.715686E-08  3.920819E-10  1.186122E-10 -2.715377E-08  1.425738E-10  2.056907E-12  6.222509E-13 -1.425576E-10  0.000000E+00  0.000000E+00  0.000000E+00  0.000000E+00  0.000000E+00  0.000000E+00  0.000000E+00  0.000000E+00  5.084749E-01 -6.627537E-03 -1.406230E-03  5.084298E-01                                                                                                                                                                                                                                                                                                                                                                                                                                                                                              
  1.725000E+03  1.250000E+02 -4.725000E+03  2.623996E-08  5.100213E-10  1.065790E-10 -2.623478E-08  1.378008E-10  2.676442E-12  5.592984E-13 -1.377737E-10  0.000000E+00  0.000000E+00  0.000000E+00  0.000000E+00  0.000000E+00  0.000000E+00  0.000000E+00  0.000000E+00  5.050044E-01 -9.419908E-03 -1.221206E-03  5.049151E-01                                                                                                                                                                                                                                                                                                                                                                                                                                                                                              