Title="TOUGHREACT V3.30-OMP flowvector.tec: Liq & Gas Fluxes (kg/s/m^2), Pore Velocities (m/s), & Heat Fluxes (J/s/m2)"                                                                                                                                                                                                                                                                                                                                                                                                                                                                                                                                                                                                                                                                                                         
Variables= "X(m)"     "Y(m)"      "Z(m)"     "FluxLiq"   "FluxLiq_X"   "FluxLiq_Y"   "FluxLiq_Z"   "PorVelLiq"  "PorVelLiqX"  "PorVelLiqY"  "PorVelLiqZ"     "FluxGas"   "FluxGas_X"   "FluxGas_Y"   "FluxGas_Z"   "PorVelGas"  "PorVelGasX"  "PorVelGasY"  "PorVelGasZ"    "HeatFlux"  "HeatFlux_X"  "HeatFlux_Y"  "HeatFlux_Z"                                                                                                                                                                                                                                                                                                                                                                                                                                                                                                
Zone T= "3.15569000E+08 sec" I=     9 J=    10 K=    23 F=Point
  1.250000E+02  1.250000E+02 -5.425000E+03  3.450713E-09 -3.573221E-10  2.893105E-10 -3.419948E-09  1.873480E-11 -1.944620E-12  1.574568E-12 -1.856696E-11  0.000000E+00  0.000000E+00  0.000000E+00  0.000000E+00  0.000000E+00  0.000000E+00  0.000000E+00  0.000000E+00  5.883734E-02  5.947098E-04 -4.778448E-05  5.883432E-02                                                                                                                                                                                                                                                                                                                                                                                                                                                                                              
  3.750000E+02  1.250000E+02 -5.425000E+03  3.671382E-09 -8.358144E-10  2.942610E-10 -3.562846E-09  1.993305E-11 -4.548434E-12  1.601385E-12 -1.934099E-11  0.000000E+00  0.000000E+00  0.000000E+00  0.000000E+00  0.000000E+00  0.000000E+00  0.000000E+00  0.000000E+00  5.910969E-02  1.362063E-03 -6.160080E-05  5.909396E-02                                                                                                                                                                                                                                                                                                                                                                                                                                                                                              
  6.250000E+02  1.250000E+02 -5.425000E+03  3.819438E-09 -8.272256E-10  3.018927E-10 -3.716539E-09  2.073426E-11 -4.501347E-12  1.642747E-12 -2.017297E-11  0.000000E+00  0.000000E+00  0.000000E+00  0.000000E+00  0.000000E+00  0.000000E+00  0.000000E+00  0.000000E+00  5.937125E-02  1.309395E-03 -8.241649E-05  5.935675E-02                                                                                                                                                                                                                                                                                                                                                                                                                                                                                              
  8.750000E+02  1.250000E+02 -5.425000E+03  3.849035E-09 -4.101506E-10  3.085785E-10 -3.814659E-09  2.089138E-11 -2.231704E-12  1.679005E-12 -2.070386E-11  0.000000E+00  0.000000E+00  0.000000E+00  0.000000E+00  0.000000E+00  0.000000E+00  0.000000E+00  0.000000E+00  5.952156E-02  6.369915E-04 -1.001997E-04  5.951807E-02                                                                                                                                                                                                                                                                                                                                                                                                                                                                                              
  1.050000E+03  1.250000E+02 -5.425000E+03  3.839479E-09 -7.264613E-15  3.094656E-10 -3.826987E-09  2.083871E-11 -3.952668E-17  1.683817E-12 -2.077057E-11  0.000000E+00  0.000000E+00  0.000000E+00  0.000000E+00  0.000000E+00  0.000000E+00  0.000000E+00  0.000000E+00  5.953855E-02 -2.819261E-09 -1.025746E-04  5.953847E-02                                                                                                                                                                                                                                                                                                                                                                                                                                                                                              
  1.225000E+03  1.250000E+02 -5.425000E+03  3.849028E-09  4.101498E-10  3.085727E-10 -3.814653E-09  2.089134E-11  2.231700E-12  1.678974E-12 -2.070383E-11  0.000000E+00  0.000000E+00  0.000000E+00  0.000000E+00  0.000000E+00  0.000000E+00  0.000000E+00  0.000000E+00  5.952157E-02 -6.369946E-04 -1.002060E-04  5.951807E-02                                                                                                                                                                                                                                                                                                                                                                                                                                                                                              
  1.475000E+03  1.250000E+02 -5.425000E+03  3.819432E-09  8.272406E-10  3.018923E-10 -3.716530E-09  2.073423E-11  4.501429E-12  1.642745E-12 -2.017292E-11  0.000000E+00  0.000000E+00  0.000000E+00  0.000000E+00  0.000000E+00  0.000000E+00  0.000000E+00  0.000000E+00  5.937125E-02 -1.309406E-03 -8.242639E-05  5.935676E-02                                                                                                                                                                                                                                                                                                                                                                                                                                                                                              
  1.725000E+03  1.250000E+02 -5.425000E+03  3.671359E-09  8.358218E-10  2.942546E-10 -3.562821E-09  1.993292E-11  4.548474E-12  1.601350E-12 -1.934085E-11  0.000000E+00  0.000000E+00  0.000000E+00  0.000000E+00  0.000000E+00  0.000000E+00  0.000000E+00  0.000000E+00  5.910971E-02 -1.362083E-03 -6.158685E-05  5.909398E-02                                                                                                                                                                                                                                                                                                                                                                                                                                                                                              
  1.975000E+03  1.250000E+02 -5.425000E+03  3.450716E-09  3.573210E-10  2.892922E-10 -3.419952E-09  1.873482E-11  1.944614E-12  1.574469E-12 -1.856699E-11  0.000000E+00  0.000000E+00  0.000000E+00  0.000000E+00  0.000000E+00  0.000000E+00  0.000000E+00  0.000000E+00  5.883737E-02 -5.947193E-04 -4.778083E-05  5.883435E-02                                                                                                                                                                                                                                                                                                                                                                                                                                                                                              
  1.250000E+02  1.250000E+02 -5.225000E+03  1.220029E-08 -2.842699E-10  2.428026E-10 -1.219456E-08  6.581727E-11 -1.540444E-12  1.315824E-12 -6.578608E-11  0.000000E+00  0.000000E+00  0.000000E+00  0.000000E+00  0.000000E+00  0.000000E+00  0.000000E+00  0.000000E+00  2.111736E-01  9.443024E-04 -1.756817E-04  2.111714E-01                                                                                                                                                                                                                                                                                                                                                                                                                                                                                              
  3.750000E+02  1.250000E+02 -5.225000E+03  1.270103E-08 -6.481356E-10  2.468107E-10 -1.268208E-08  6.851048E-11 -3.511985E-12  1.337407E-12 -6.840733E-11  0.000000E+00  0.000000E+00  0.000000E+00  0.000000E+00  0.000000E+00  0.000000E+00  0.000000E+00  0.000000E+00  2.123979E-01  2.102232E-03 -1.960939E-04  2.123874E-01                                                                                                                                                                                                                                                                                                                                                                                                                                                                                              
  6.250000E+02  1.250000E+02 -5.225000E+03  1.318960E-08 -6.240117E-10  2.531167E-10 -1.317240E-08  7.113569E-11 -3.380940E-12  1.371403E-12 -7.104206E-11  0.000000E+00  0.000000E+00  0.000000E+00  0.000000E+00  0.000000E+00  0.000000E+00  0.000000E+00  0.000000E+00  2.134873E-01  1.956050E-03 -2.270002E-04  2.134783E-01                                                                                                                                                                                                                                                                                                                                                                                                                                                                                              
  8.750000E+02  1.250000E+02 -5.225000E+03  1.348739E-08 -3.062657E-10  2.591713E-10 -1.348142E-08  7.273427E-11 -1.659250E-12  1.404083E-12 -7.270178E-11  0.000000E+00  0.000000E+00  0.000000E+00  0.000000E+00  0.000000E+00  0.000000E+00  0.000000E+00  0.000000E+00  2.141200E-01  9.387130E-04 -2.551759E-04  2.141178E-01                                                                                                                                                                                                                                                                                                                                                                                                                                                                                              
  1.050000E+03  1.250000E+02 -5.225000E+03  1.352568E-08  1.119588E-16  2.601201E-10 -1.352318E-08  7.293965E-11  6.065224E-19  1.409208E-12 -7.292603E-11  0.000000E+00  0.000000E+00  0.000000E+00  0.000000E+00  0.000000E+00  0.000000E+00  0.000000E+00  0.000000E+00  2.142078E-01  1.114530E-09 -2.594561E-04  2.142076E-01                                                                                                                                                                                                                                                                                                                                                                                                                                                                                              
  1.225000E+03  1.250000E+02 -5.225000E+03  1.348739E-08  3.062737E-10  2.591746E-10 -1.348142E-08  7.273423E-11  1.659294E-12  1.404101E-12 -7.270175E-11  0.000000E+00  0.000000E+00  0.000000E+00  0.000000E+00  0.000000E+00  0.000000E+00  0.000000E+00  0.000000E+00  2.141200E-01 -9.387122E-04 -2.551780E-04  2.141178E-01                                                                                                                                                                                                                                                                                                                                                                                                                                                                                              
  1.475000E+03  1.250000E+02 -5.225000E+03  1.318960E-08  6.240380E-10  2.531178E-10 -1.317240E-08  7.113569E-11  3.381082E-12  1.371409E-12 -7.104206E-11  0.000000E+00  0.000000E+00  0.000000E+00  0.000000E+00  0.000000E+00  0.000000E+00  0.000000E+00  0.000000E+00  2.134873E-01 -1.956048E-03 -2.270092E-04  2.134783E-01                                                                                                                                                                                                                                                                                                                                                                                                                                                                                              
  1.725000E+03  1.250000E+02 -5.225000E+03  1.270102E-08  6.481296E-10  2.467972E-10 -1.268207E-08  6.851043E-11  3.511952E-12  1.337333E-12 -6.840729E-11  0.000000E+00  0.000000E+00  0.000000E+00  0.000000E+00  0.000000E+00  0.000000E+00  0.000000E+00  0.000000E+00  2.123980E-01 -2.102232E-03 -1.960950E-04  2.123875E-01                                                                                                                                                                                                                                                                                                                                                                                                                                                                                              
  1.975000E+03  1.250000E+02 -5.225000E+03  1.220029E-08  2.842455E-10  2.428003E-10 -1.219456E-08  6.581725E-11  1.540312E-12  1.315811E-12 -6.578607E-11  0.000000E+00  0.000000E+00  0.000000E+00  0.000000E+00  0.000000E+00  0.000000E+00  0.000000E+00  0.000000E+00  2.111737E-01 -9.443050E-04 -1.756933E-04  2.111715E-01                                                                                                                                                                                                                                                                                                                                                                                                                                                                                              
  1.250000E+02  1.250000E+02 -4.975000E+03  2.155086E-08 -2.765420E-10  1.767650E-10 -2.154836E-08  1.148967E-10 -1.478402E-12  9.451072E-13 -1.148833E-10  0.000000E+00  0.000000E+00  0.000000E+00  0.000000E+00  0.000000E+00  0.000000E+00  0.000000E+00  0.000000E+00  3.795842E-01  2.142141E-03 -5.301189E-04  3.795778E-01                                                                                                                                                                                                                                                                                                                                                                                                                                                                                              
  3.750000E+02  1.250000E+02 -4.975000E+03  2.248252E-08 -5.788592E-10  1.819434E-10 -2.247433E-08  1.198330E-10 -3.094274E-12  9.726066E-13 -1.197891E-10  0.000000E+00  0.000000E+00  0.000000E+00  0.000000E+00  0.000000E+00  0.000000E+00  0.000000E+00  0.000000E+00  3.833519E-01  4.403857E-03 -5.769954E-04  3.833262E-01                                                                                                                                                                                                                                                                                                                                                                                                                                                                                              
  6.250000E+02  1.250000E+02 -4.975000E+03  2.326702E-08 -5.070570E-10  1.903336E-10 -2.326072E-08  1.239883E-10 -2.710010E-12  1.017251E-12 -1.239545E-10  0.000000E+00  0.000000E+00  0.000000E+00  0.000000E+00  0.000000E+00  0.000000E+00  0.000000E+00  0.000000E+00  3.857722E-01  3.723485E-03 -6.468086E-04  3.857537E-01                                                                                                                                                                                                                                                                                                                                                                                                                                                                                              
  8.750000E+02  1.250000E+02 -4.975000E+03  2.375096E-08 -2.443743E-10  1.999873E-10 -2.374886E-08  1.265503E-10 -1.305930E-12  1.068706E-12 -1.265390E-10  0.000000E+00  0.000000E+00  0.000000E+00  0.000000E+00  0.000000E+00  0.000000E+00  0.000000E+00  0.000000E+00  3.870567E-01  1.735183E-03 -7.209297E-04  3.870522E-01                                                                                                                                                                                                                                                                                                                                                                                                                                                                                              
  1.050000E+03  1.250000E+02 -4.975000E+03  2.384269E-08  4.268236E-16  2.023979E-10 -2.384183E-08  1.270355E-10  2.280835E-18  1.081569E-12 -1.270309E-10  0.000000E+00  0.000000E+00  0.000000E+00  0.000000E+00  0.000000E+00  0.000000E+00  0.000000E+00  0.000000E+00  3.873736E-01 -7.507145E-09 -7.387545E-04  3.873729E-01                                                                                                                                                                                                                                                                                                                                                                                                                                                                                              
  1.225000E+03  1.250000E+02 -4.975000E+03  2.375096E-08  2.443720E-10  1.999841E-10 -2.374886E-08  1.265503E-10  1.305917E-12  1.068688E-12 -1.265390E-10  0.000000E+00  0.000000E+00  0.000000E+00  0.000000E+00  0.000000E+00  0.000000E+00  0.000000E+00  0.000000E+00  3.870567E-01 -1.735187E-03 -7.209309E-04  3.870522E-01                                                                                                                                                                                                                                                                                                                                                                                                                                                                                              
  1.475000E+03  1.250000E+02 -4.975000E+03  2.326703E-08  5.070609E-10  1.903392E-10 -2.326073E-08  1.239883E-10  2.710031E-12  1.017280E-12 -1.239545E-10  0.000000E+00  0.000000E+00  0.000000E+00  0.000000E+00  0.000000E+00  0.000000E+00  0.000000E+00  0.000000E+00  3.857722E-01 -3.723487E-03 -6.468080E-04  3.857537E-01                                                                                                                                                                                                                                                                                                                                                                                                                                                                                              
  1.725000E+03  1.250000E+02 -4.975000E+03  2.248254E-08  5.788708E-10  1.819344E-10 -2.247435E-08  1.198331E-10  3.094337E-12  9.725586E-13 -1.197892E-10  0.000000E+00  0.000000E+00  0.000000E+00  0.000000E+00  0.000000E+00  0.000000E+00  0.000000E+00  0.000000E+00  3.833519E-01 -4.403845E-03 -5.769947E-04  3.833262E-01                                                                                                                                                                                                                                                                                                                                                                                                                                                                                              
  1.975000E+03  1.250000E+02 -4.975000E+03  2.155086E-08  2.765470E-10  1.767662E-10 -2.154836E-08  1.148967E-10  1.478429E-12  9.451141E-13 -1.148833E-10  0.000000E+00  0.000000E+00  0.000000E+00  0.000000E+00  0.000000E+00  0.000000E+00  0.000000E+00  0.000000E+00  3.795842E-01 -2.142123E-03 -5.301370E-04  3.795778E-01                                                                                                                                                                                                                                                                                                                                                                                                                                                                                              
  1.250000E+02  1.250000E+02 -4.725000E+03  2.740068E-08 -2.733166E-10  9.824988E-11 -2.739914E-08  1.439409E-10 -1.434488E-12  5.157828E-13 -1.439328E-10  0.000000E+00  0.000000E+00  0.000000E+00  0.000000E+00  0.000000E+00  0.000000E+00  0.000000E+00  0.000000E+00  4.913687E-01  5.257271E-03 -1.084781E-03  4.913394E-01                                                                                                                                                                                                                                                                                                                                                                                                                                                                                              
  3.750000E+02  1.250000E+02 -4.725000E+03  2.885256E-08 -5.027300E-10  1.056098E-10 -2.884799E-08  1.514918E-10 -2.638114E-12  5.541987E-13 -1.514678E-10  0.000000E+00  0.000000E+00  0.000000E+00  0.000000E+00  0.000000E+00  0.000000E+00  0.000000E+00  0.000000E+00  5.029031E-01  9.414033E-03 -1.220819E-03  5.028135E-01                                                                                                                                                                                                                                                                                                                                                                                                                                                                                              
  6.250000E+02  1.250000E+02 -4.725000E+03  2.976086E-08 -3.873195E-10  1.174809E-10 -2.975811E-08  1.562151E-10 -2.031874E-12  6.163011E-13 -1.562007E-10  0.000000E+00  0.000000E+00  0.000000E+00  0.000000E+00  0.000000E+00  0.000000E+00  0.000000E+00  0.000000E+00  5.063801E-01  6.623656E-03 -1.405600E-03  5.063349E-01                                                                                                                                                                                                                                                                                                                                                                                                                                                                                              
  8.750000E+02  1.250000E+02 -4.725000E+03  3.034530E-08 -2.134824E-10  1.341171E-10 -3.034425E-08  1.592541E-10 -1.119722E-12  7.034466E-13 -1.592486E-10  0.000000E+00  0.000000E+00  0.000000E+00  0.000000E+00  0.000000E+00  0.000000E+00  0.000000E+00  0.000000E+00  5.080819E-01  3.140437E-03 -1.638627E-03  5.080695E-01                                                                                                                                                                                                                                                                                                                                                                                                                                                                                              
  1.050000E+03  1.250000E+02 -4.725000E+03  3.065376E-08  5.707295E-16  1.431905E-10 -3.065342E-08  1.608572E-10  2.993225E-18  7.510130E-13 -1.608555E-10  0.000000E+00  0.000000E+00  0.000000E+00  0.000000E+00  0.000000E+00  0.000000E+00  0.000000E+00  0.000000E+00  5.102394E-01  1.629051E-09 -1.765460E-03  5.102363E-01                                                                                                                                                                                                                                                                                                                                                                                                                                                                                              
  1.225000E+03  1.250000E+02 -4.725000E+03  3.034530E-08  2.134817E-10  1.341153E-10 -3.034426E-08  1.592541E-10  1.119718E-12  7.034371E-13 -1.592486E-10  0.000000E+00  0.000000E+00  0.000000E+00  0.000000E+00  0.000000E+00  0.000000E+00  0.000000E+00  0.000000E+00  5.080819E-01 -3.140437E-03 -1.638627E-03  5.080695E-01                                                                                                                                                                                                                                                                                                                                                                                                                                                                                              
  1.475000E+03  1.250000E+02 -4.725000E+03  2.976086E-08  3.873235E-10  1.174820E-10 -2.975811E-08  1.562151E-10  2.031895E-12  6.163070E-13 -1.562007E-10  0.000000E+00  0.000000E+00  0.000000E+00  0.000000E+00  0.000000E+00  0.000000E+00  0.000000E+00  0.000000E+00  5.063801E-01 -6.623655E-03 -1.405603E-03  5.063349E-01                                                                                                                                                                                                                                                                                                                                                                                                                                                                                              
  1.725000E+03  1.250000E+02 -4.725000E+03  2.885257E-08  5.027372E-10  1.056050E-10 -2.884799E-08  1.514918E-10  2.638152E-12  5.541737E-13 -1.514678E-10  0.000000E+00  0.000000E+00  0.000000E+00  0.000000E+00  0.000000E+00  0.000000E+00  0.000000E+00  0.000000E+00  5.029031E-01 -9.414029E-03 -1.220826E-03  5.028135E-01                                                                                                                                                                                                                                                                                                                                                                                                                                                                                              