Title="TOUGHREACT V3.30-OMP flowvector.tec: Liq & Gas Fluxes (kg/s/m^2), Pore Velocities (m/s), & Heat Fluxes (J/s/m2)"                                                                                                                                                                                                                                                                                                                                                                                                                                                                                                                                                                                                                                                                                                         
Variables= "X(m)"     "Y(m)"      "Z(m)"     "FluxLiq"   "FluxLiq_X"   "FluxLiq_Y"   "FluxLiq_Z"   "PorVelLiq"  "PorVelLiqX"  "PorVelLiqY"  "PorVelLiqZ"     "FluxGas"   "FluxGas_X"   "FluxGas_Y"   "FluxGas_Z"   "PorVelGas"  "PorVelGasX"  "PorVelGasY"  "PorVelGasZ"    "HeatFlux"  "HeatFlux_X"  "HeatFlux_Y"  "HeatFlux_Z"                                                                                                                                                                                                                                                                                                                                                                                                                                                                                                
Zone T= "1.00000000E+10 sec" I=     9 J=    10 K=    23 F=Point
  1.250000E+02  1.250000E+02 -5.425000E+03  3.681121E-09 -3.429850E-10  2.935011E-10 -3.653336E-09  1.993514E-11 -1.861698E-12  1.593187E-12 -1.978398E-11  0.000000E+00  0.000000E+00  0.000000E+00  0.000000E+00  0.000000E+00  0.000000E+00  0.000000E+00  0.000000E+00  5.691410E-02  6.044164E-04 -9.262363E-05  5.691082E-02                                                                                                                                                                                                                                                                                                                                                                                                                                                                                              
  3.750000E+02  1.250000E+02 -5.425000E+03  3.884768E-09 -8.033669E-10  2.977712E-10 -3.789110E-09  2.103780E-11 -4.360393E-12  1.616241E-12 -2.051740E-11  0.000000E+00  0.000000E+00  0.000000E+00  0.000000E+00  0.000000E+00  0.000000E+00  0.000000E+00  0.000000E+00  5.717675E-02  1.389977E-03 -1.047000E-04  5.715976E-02                                                                                                                                                                                                                                                                                                                                                                                                                                                                                              
  6.250000E+02  1.250000E+02 -5.425000E+03  4.027149E-09 -7.966489E-10  3.043624E-10 -3.935816E-09  2.180621E-11 -4.323601E-12  1.651848E-12 -2.130936E-11  0.000000E+00  0.000000E+00  0.000000E+00  0.000000E+00  0.000000E+00  0.000000E+00  0.000000E+00  0.000000E+00  5.742557E-02  1.344265E-03 -1.228923E-04  5.740971E-02                                                                                                                                                                                                                                                                                                                                                                                                                                                                                              
  8.750000E+02  1.250000E+02 -5.425000E+03  4.061145E-09 -3.955285E-10  3.101687E-10 -4.029920E-09  2.198697E-11 -2.146503E-12  1.683238E-12 -2.181711E-11  0.000000E+00  0.000000E+00  0.000000E+00  0.000000E+00  0.000000E+00  0.000000E+00  0.000000E+00  0.000000E+00  5.756615E-02  6.567045E-04 -1.384968E-04  5.756223E-02                                                                                                                                                                                                                                                                                                                                                                                                                                                                                              
  1.050000E+03  1.250000E+02 -5.425000E+03  4.053710E-09 -2.895956E-14  3.109593E-10 -4.041765E-09  2.194599E-11 -1.571558E-16  1.687513E-12 -2.188102E-11  0.000000E+00  0.000000E+00  0.000000E+00  0.000000E+00  0.000000E+00  0.000000E+00  0.000000E+00  0.000000E+00  5.758171E-02 -1.067052E-08 -1.405941E-04  5.758154E-02                                                                                                                                                                                                                                                                                                                                                                                                                                                                                              
  1.225000E+03  1.250000E+02 -5.425000E+03  4.061146E-09  3.954986E-10  3.101742E-10 -4.029923E-09  2.198698E-11  2.146341E-12  1.683267E-12 -2.181712E-11  0.000000E+00  0.000000E+00  0.000000E+00  0.000000E+00  0.000000E+00  0.000000E+00  0.000000E+00  0.000000E+00  5.756613E-02 -6.567300E-04 -1.385046E-04  5.756221E-02                                                                                                                                                                                                                                                                                                                                                                                                                                                                                              
  1.475000E+03  1.250000E+02 -5.425000E+03  4.027143E-09  7.966579E-10  3.043748E-10 -3.935806E-09  2.180618E-11  4.323650E-12  1.651916E-12 -2.130931E-11  0.000000E+00  0.000000E+00  0.000000E+00  0.000000E+00  0.000000E+00  0.000000E+00  0.000000E+00  0.000000E+00  5.742558E-02 -1.344282E-03 -1.228767E-04  5.740971E-02                                                                                                                                                                                                                                                                                                                                                                                                                                                                                              
  1.725000E+03  1.250000E+02 -5.425000E+03  3.884763E-09  8.033790E-10  2.977812E-10 -3.789102E-09  2.103777E-11  4.360458E-12  1.616295E-12 -2.051735E-11  0.000000E+00  0.000000E+00  0.000000E+00  0.000000E+00  0.000000E+00  0.000000E+00  0.000000E+00  0.000000E+00  5.717675E-02 -1.389982E-03 -1.046794E-04  5.715976E-02                                                                                                                                                                                                                                                                                                                                                                                                                                                                                              
  1.975000E+03  1.250000E+02 -5.425000E+03  3.681102E-09  3.429872E-10  2.935035E-10 -3.653317E-09  1.993504E-11  1.861710E-12  1.593201E-12 -1.978387E-11  0.000000E+00  0.000000E+00  0.000000E+00  0.000000E+00  0.000000E+00  0.000000E+00  0.000000E+00  0.000000E+00  5.691412E-02 -6.044190E-04 -9.260670E-05  5.691084E-02                                                                                                                                                                                                                                                                                                                                                                                                                                                                                              
  1.250000E+02  1.250000E+02 -5.225000E+03  1.297469E-08 -2.710573E-10  2.410490E-10 -1.296962E-08  6.983939E-11 -1.465273E-12  1.303143E-12 -6.981186E-11  0.000000E+00  0.000000E+00  0.000000E+00  0.000000E+00  0.000000E+00  0.000000E+00  0.000000E+00  0.000000E+00  2.034890E-01  9.378960E-04 -2.184862E-04  2.034867E-01                                                                                                                                                                                                                                                                                                                                                                                                                                                                                              
  3.750000E+02  1.250000E+02 -5.225000E+03  1.344889E-08 -6.187052E-10  2.446191E-10 -1.343243E-08  7.238341E-11 -3.344364E-12  1.322310E-12 -7.229401E-11  0.000000E+00  0.000000E+00  0.000000E+00  0.000000E+00  0.000000E+00  0.000000E+00  0.000000E+00  0.000000E+00  2.046685E-01  2.095006E-03 -2.365976E-04  2.046577E-01                                                                                                                                                                                                                                                                                                                                                                                                                                                                                              
  6.250000E+02  1.250000E+02 -5.225000E+03  1.391468E-08 -5.966186E-10  2.502401E-10 -1.389963E-08  7.487987E-11 -3.224672E-12  1.352527E-12 -7.479818E-11  0.000000E+00  0.000000E+00  0.000000E+00  0.000000E+00  0.000000E+00  0.000000E+00  0.000000E+00  0.000000E+00  2.057109E-01  1.959236E-03 -2.640034E-04  2.057014E-01                                                                                                                                                                                                                                                                                                                                                                                                                                                                                              
  8.750000E+02  1.250000E+02 -5.225000E+03  1.420068E-08 -2.931486E-10  2.556733E-10 -1.419535E-08  7.641130E-11 -1.584332E-12  1.381774E-12 -7.638238E-11  0.000000E+00  0.000000E+00  0.000000E+00  0.000000E+00  0.000000E+00  0.000000E+00  0.000000E+00  0.000000E+00  2.063131E-01  9.435547E-04 -2.892062E-04  2.063107E-01                                                                                                                                                                                                                                                                                                                                                                                                                                                                                              
  1.050000E+03  1.250000E+02 -5.225000E+03  1.423769E-08 -3.205493E-14  2.565497E-10 -1.423538E-08  7.660932E-11 -1.732345E-16  1.386496E-12 -7.659677E-11  0.000000E+00  0.000000E+00  0.000000E+00  0.000000E+00  0.000000E+00  0.000000E+00  0.000000E+00  0.000000E+00  2.063970E-01 -3.447432E-08 -2.930464E-04  2.063968E-01                                                                                                                                                                                                                                                                                                                                                                                                                                                                                              
  1.225000E+03  1.250000E+02 -5.225000E+03  1.420067E-08  2.931248E-10  2.556961E-10 -1.419534E-08  7.641120E-11  1.584203E-12  1.381897E-12 -7.638228E-11  0.000000E+00  0.000000E+00  0.000000E+00  0.000000E+00  0.000000E+00  0.000000E+00  0.000000E+00  0.000000E+00  2.063131E-01 -9.435851E-04 -2.891836E-04  2.063107E-01                                                                                                                                                                                                                                                                                                                                                                                                                                                                                              
  1.475000E+03  1.250000E+02 -5.225000E+03  1.391467E-08  5.966334E-10  2.502483E-10 -1.389962E-08  7.487978E-11  3.224752E-12  1.352571E-12 -7.479808E-11  0.000000E+00  0.000000E+00  0.000000E+00  0.000000E+00  0.000000E+00  0.000000E+00  0.000000E+00  0.000000E+00  2.057110E-01 -1.959237E-03 -2.639961E-04  2.057015E-01                                                                                                                                                                                                                                                                                                                                                                                                                                                                                              
  1.725000E+03  1.250000E+02 -5.225000E+03  1.344888E-08  6.187232E-10  2.446161E-10 -1.343242E-08  7.238336E-11  3.344461E-12  1.322294E-12 -7.229396E-11  0.000000E+00  0.000000E+00  0.000000E+00  0.000000E+00  0.000000E+00  0.000000E+00  0.000000E+00  0.000000E+00  2.046685E-01 -2.094997E-03 -2.365842E-04  2.046577E-01                                                                                                                                                                                                                                                                                                                                                                                                                                                                                              
  1.975000E+03  1.250000E+02 -5.225000E+03  1.297467E-08  2.710687E-10  2.410335E-10 -1.296960E-08  6.983930E-11  1.465335E-12  1.303059E-12 -6.981177E-11  0.000000E+00  0.000000E+00  0.000000E+00  0.000000E+00  0.000000E+00  0.000000E+00  0.000000E+00  0.000000E+00  2.034890E-01 -9.378823E-04 -2.184876E-04  2.034867E-01                                                                                                                                                                                                                                                                                                                                                                                                                                                                                              
  1.250000E+02  1.250000E+02 -4.975000E+03  2.276118E-08 -2.632077E-10  1.712234E-10 -2.275902E-08  1.211527E-10 -1.404587E-12  9.138293E-13 -1.211412E-10  0.000000E+00  0.000000E+00  0.000000E+00  0.000000E+00  0.000000E+00  0.000000E+00  0.000000E+00  0.000000E+00  3.632762E-01  2.085182E-03 -5.521285E-04  3.632698E-01                                                                                                                                                                                                                                                                                                                                                                                                                                                                                              
  3.750000E+02  1.250000E+02 -4.975000E+03  2.364614E-08 -5.512861E-10  1.760297E-10 -2.363905E-08  1.258321E-10 -2.941597E-12  9.393063E-13 -1.257942E-10  0.000000E+00  0.000000E+00  0.000000E+00  0.000000E+00  0.000000E+00  0.000000E+00  0.000000E+00  0.000000E+00  3.669226E-01  4.294499E-03 -5.953942E-04  3.668970E-01                                                                                                                                                                                                                                                                                                                                                                                                                                                                                              
  6.250000E+02  1.250000E+02 -4.975000E+03  2.439415E-08 -4.834420E-10  1.838240E-10 -2.438867E-08  1.297860E-10 -2.579178E-12  9.807045E-13 -1.297566E-10  0.000000E+00  0.000000E+00  0.000000E+00  0.000000E+00  0.000000E+00  0.000000E+00  0.000000E+00  0.000000E+00  3.692586E-01  3.642631E-03 -6.596597E-04  3.692400E-01                                                                                                                                                                                                                                                                                                                                                                                                                                                                                              
  8.750000E+02  1.250000E+02 -4.975000E+03  2.485759E-08 -2.332457E-10  1.927805E-10 -2.485575E-08  1.322344E-10 -1.244235E-12  1.028357E-12 -1.322245E-10  0.000000E+00  0.000000E+00  0.000000E+00  0.000000E+00  0.000000E+00  0.000000E+00  0.000000E+00  0.000000E+00  3.704969E-01  1.701811E-03 -7.283025E-04  3.704922E-01                                                                                                                                                                                                                                                                                                                                                                                                                                                                                              
  1.050000E+03  1.250000E+02 -4.975000E+03  2.494573E-08 -9.742002E-18  1.950220E-10 -2.494497E-08  1.326998E-10 -5.195954E-20  1.040297E-12 -1.326957E-10  0.000000E+00  0.000000E+00  0.000000E+00  0.000000E+00  0.000000E+00  0.000000E+00  0.000000E+00  0.000000E+00  3.708062E-01 -8.841567E-10 -7.448954E-04  3.708055E-01                                                                                                                                                                                                                                                                                                                                                                                                                                                                                              
  1.225000E+03  1.250000E+02 -4.975000E+03  2.485757E-08  2.332399E-10  1.927841E-10 -2.485573E-08  1.322343E-10  1.244204E-12  1.028377E-12 -1.322244E-10  0.000000E+00  0.000000E+00  0.000000E+00  0.000000E+00  0.000000E+00  0.000000E+00  0.000000E+00  0.000000E+00  3.704969E-01 -1.701816E-03 -7.283016E-04  3.704923E-01                                                                                                                                                                                                                                                                                                                                                                                                                                                                                              
  1.475000E+03  1.250000E+02 -4.975000E+03  2.439414E-08  4.834342E-10  1.838324E-10 -2.438866E-08  1.297859E-10  2.579137E-12  9.807491E-13 -1.297566E-10  0.000000E+00  0.000000E+00  0.000000E+00  0.000000E+00  0.000000E+00  0.000000E+00  0.000000E+00  0.000000E+00  3.692586E-01 -3.642634E-03 -6.596567E-04  3.692400E-01                                                                                                                                                                                                                                                                                                                                                                                                                                                                                              
  1.725000E+03  1.250000E+02 -4.975000E+03  2.364613E-08  5.512915E-10  1.760385E-10 -2.363905E-08  1.258321E-10  2.941626E-12  9.393530E-13 -1.257942E-10  0.000000E+00  0.000000E+00  0.000000E+00  0.000000E+00  0.000000E+00  0.000000E+00  0.000000E+00  0.000000E+00  3.669227E-01 -4.294492E-03 -5.953975E-04  3.668971E-01                                                                                                                                                                                                                                                                                                                                                                                                                                                                                              
  1.975000E+03  1.250000E+02 -4.975000E+03  2.276119E-08  2.632151E-10  1.712196E-10 -2.275902E-08  1.211527E-10  1.404627E-12  9.138094E-13 -1.211412E-10  0.000000E+00  0.000000E+00  0.000000E+00  0.000000E+00  0.000000E+00  0.000000E+00  0.000000E+00  0.000000E+00  3.632762E-01 -2.085176E-03 -5.521400E-04  3.632698E-01                                                                                                                                                                                                                                                                                                                                                                                                                                                                                              
  1.250000E+02  1.250000E+02 -4.725000E+03  2.868308E-08 -2.625612E-10  9.396140E-11 -2.868173E-08  1.505506E-10 -1.376889E-12  4.928534E-13 -1.505435E-10  0.000000E+00  0.000000E+00  0.000000E+00  0.000000E+00  0.000000E+00  0.000000E+00  0.000000E+00  0.000000E+00  4.663606E-01  5.090812E-03 -1.061862E-03  4.663316E-01                                                                                                                                                                                                                                                                                                                                                                                                                                                                                              
  3.750000E+02  1.250000E+02 -4.725000E+03  3.006757E-08 -4.832732E-10  1.009386E-10 -3.006351E-08  1.577416E-10 -2.533912E-12  5.292470E-13 -1.577204E-10  0.000000E+00  0.000000E+00  0.000000E+00  0.000000E+00  0.000000E+00  0.000000E+00  0.000000E+00  0.000000E+00  4.775230E-01  9.125097E-03 -1.190328E-03  4.774343E-01                                                                                                                                                                                                                                                                                                                                                                                                                                                                                              
  6.250000E+02  1.250000E+02 -4.725000E+03  3.093592E-08 -3.727389E-10  1.121426E-10 -3.093347E-08  1.622508E-10 -1.953785E-12  5.878154E-13 -1.622380E-10  0.000000E+00  0.000000E+00  0.000000E+00  0.000000E+00  0.000000E+00  0.000000E+00  0.000000E+00  0.000000E+00  4.808993E-01  6.436029E-03 -1.364023E-03  4.808543E-01                                                                                                                                                                                                                                                                                                                                                                                                                                                                                              
  8.750000E+02  1.250000E+02 -4.725000E+03  3.149635E-08 -2.055973E-10  1.277839E-10 -3.149542E-08  1.651611E-10 -1.077489E-12  6.696846E-13 -1.651562E-10  0.000000E+00  0.000000E+00  0.000000E+00  0.000000E+00  0.000000E+00  0.000000E+00  0.000000E+00  0.000000E+00  4.825562E-01  3.060899E-03 -1.582806E-03  4.825439E-01                                                                                                                                                                                                                                                                                                                                                                                                                                                                                              
  1.050000E+03  1.250000E+02 -4.725000E+03  3.179327E-08 -6.612302E-16  1.362394E-10 -3.179297E-08  1.667029E-10 -3.465101E-18  7.139759E-13 -1.667013E-10  0.000000E+00  0.000000E+00  0.000000E+00  0.000000E+00  0.000000E+00  0.000000E+00  0.000000E+00  0.000000E+00  4.846740E-01  3.889682E-09 -1.701123E-03  4.846711E-01                                                                                                                                                                                                                                                                                                                                                                                                                                                                                              
  1.225000E+03  1.250000E+02 -4.725000E+03  3.149635E-08  2.055949E-10  1.277856E-10 -3.149542E-08  1.651611E-10  1.077476E-12  6.696933E-13 -1.651562E-10  0.000000E+00  0.000000E+00  0.000000E+00  0.000000E+00  0.000000E+00  0.000000E+00  0.000000E+00  0.000000E+00  4.825562E-01 -3.060897E-03 -1.582808E-03  4.825439E-01                                                                                                                                                                                                                                                                                                                                                                                                                                                                                              
  1.475000E+03  1.250000E+02 -4.725000E+03  3.093591E-08  3.727387E-10  1.121464E-10 -3.093346E-08  1.622508E-10  1.953784E-12  5.878355E-13 -1.622380E-10  0.000000E+00  0.000000E+00  0.000000E+00  0.000000E+00  0.000000E+00  0.000000E+00  0.000000E+00  0.000000E+00  4.808993E-01 -6.436030E-03 -1.364025E-03  4.808543E-01                                                                                                                                                                                                                                                                                                                                                                                                                                                                                              
  1.725000E+03  1.250000E+02 -4.725000E+03  3.006756E-08  4.832767E-10  1.009400E-10 -3.006351E-08  1.577416E-10  2.533930E-12  5.292544E-13 -1.577203E-10  0.000000E+00  0.000000E+00  0.000000E+00  0.000000E+00  0.000000E+00  0.000000E+00  0.000000E+00  0.000000E+00  4.775230E-01 -9.125096E-03 -1.190333E-03  4.774343E-01                                                                                                                                                                                                                                                                                                                                                                                                                                                                                              