Title="TOUGHREACT V3.30-OMP flowvector.tec: Liq & Gas Fluxes (kg/s/m^2), Pore Velocities (m/s), & Heat Fluxes (J/s/m2)"                                                                                                                                                                                                                                                                                                                                                                                                                                                                                                                                                                                                                                                                                                         
Variables= "X(m)"     "Y(m)"      "Z(m)"     "FluxLiq"   "FluxLiq_X"   "FluxLiq_Y"   "FluxLiq_Z"   "PorVelLiq"  "PorVelLiqX"  "PorVelLiqY"  "PorVelLiqZ"     "FluxGas"   "FluxGas_X"   "FluxGas_Y"   "FluxGas_Z"   "PorVelGas"  "PorVelGasX"  "PorVelGasY"  "PorVelGasZ"    "HeatFlux"  "HeatFlux_X"  "HeatFlux_Y"  "HeatFlux_Z"                                                                                                                                                                                                                                                                                                                                                                                                                                                                                                
Zone T= "5.00000000E-02 sec" I=     9 J=    10 K=    23 F=Point
  1.250000E+02  1.250000E+02 -5.425000E+03  3.602974E-09 -2.684091E-10 -7.009098E-10 -3.523933E-09  2.025401E-11 -1.513463E-12 -3.952097E-12 -1.980695E-11  0.000000E+00  0.000000E+00  0.000000E+00  0.000000E+00  0.000000E+00  0.000000E+00  0.000000E+00  0.000000E+00  6.444532E-02  2.330152E-04  2.436965E-04  6.444444E-02                                                                                                                                                                                                                                                                                                                                                                                                                                                                                              
  3.750000E+02  1.250000E+02 -5.425000E+03  3.736536E-09 -6.532315E-10 -7.122138E-10 -3.609396E-09  2.100522E-11 -3.683207E-12 -4.015627E-12 -2.028615E-11  0.000000E+00  0.000000E+00  0.000000E+00  0.000000E+00  0.000000E+00  0.000000E+00  0.000000E+00  0.000000E+00  6.454750E-02  5.650783E-04  2.572532E-04  6.454451E-02                                                                                                                                                                                                                                                                                                                                                                                                                                                                                              
  6.250000E+02  1.250000E+02 -5.425000E+03  3.856824E-09 -6.829224E-10 -7.231621E-10 -3.726358E-09  2.167968E-11 -3.850413E-12 -4.077057E-12 -2.094183E-11  0.000000E+00  0.000000E+00  0.000000E+00  0.000000E+00  0.000000E+00  0.000000E+00  0.000000E+00  0.000000E+00  6.468527E-02  5.909103E-04  2.687655E-04  6.468201E-02                                                                                                                                                                                                                                                                                                                                                                                                                                                                                              
  8.750000E+02  1.250000E+02 -5.425000E+03  3.904281E-09 -3.511004E-10 -7.280915E-10 -3.819689E-09  2.194338E-11 -1.979472E-12 -4.104616E-12 -2.146499E-11  0.000000E+00  0.000000E+00  0.000000E+00  0.000000E+00  0.000000E+00  0.000000E+00  0.000000E+00  0.000000E+00  6.479618E-02  3.050027E-04  2.723137E-04  6.479489E-02                                                                                                                                                                                                                                                                                                                                                                                                                                                                                              
  1.050000E+03  1.250000E+02 -5.425000E+03  3.900099E-09  1.697562E-14 -7.286160E-10 -3.831434E-09  2.191913E-11  9.570433E-17 -4.107544E-12 -2.153082E-11  0.000000E+00  0.000000E+00  0.000000E+00  0.000000E+00  0.000000E+00  0.000000E+00  0.000000E+00  0.000000E+00  6.481003E-02  2.076026E-08  2.726336E-04  6.480945E-02                                                                                                                                                                                                                                                                                                                                                                                                                                                                                              
  1.225000E+03  1.250000E+02 -5.425000E+03  3.904269E-09  3.511183E-10 -7.280902E-10 -3.819675E-09  2.194331E-11  1.979573E-12 -4.104609E-12 -2.146491E-11  0.000000E+00  0.000000E+00  0.000000E+00  0.000000E+00  0.000000E+00  0.000000E+00  0.000000E+00  0.000000E+00  6.479619E-02 -3.049912E-04  2.723045E-04  6.479490E-02                                                                                                                                                                                                                                                                                                                                                                                                                                                                                              
  1.475000E+03  1.250000E+02 -5.425000E+03  3.856837E-09  6.829244E-10 -7.231808E-10 -3.726368E-09  2.167975E-11  3.850424E-12 -4.077162E-12 -2.094189E-11  0.000000E+00  0.000000E+00  0.000000E+00  0.000000E+00  0.000000E+00  0.000000E+00  0.000000E+00  0.000000E+00  6.468525E-02 -5.908823E-04  2.687338E-04  6.468199E-02                                                                                                                                                                                                                                                                                                                                                                                                                                                                                              
  1.725000E+03  1.250000E+02 -5.425000E+03  3.736559E-09  6.532604E-10 -7.122270E-10 -3.609413E-09  2.100536E-11  3.683370E-12 -4.015701E-12 -2.028625E-11  0.000000E+00  0.000000E+00  0.000000E+00  0.000000E+00  0.000000E+00  0.000000E+00  0.000000E+00  0.000000E+00  6.454746E-02 -5.650410E-04  2.572195E-04  6.454447E-02                                                                                                                                                                                                                                                                                                                                                                                                                                                                                              
  1.975000E+03  1.250000E+02 -5.425000E+03  3.602987E-09  2.684371E-10 -7.009418E-10 -3.523938E-09  2.025408E-11  1.513621E-12 -3.952277E-12 -1.980697E-11  0.000000E+00  0.000000E+00  0.000000E+00  0.000000E+00  0.000000E+00  0.000000E+00  0.000000E+00  0.000000E+00  6.444531E-02 -2.330150E-04  2.436545E-04  6.444443E-02                                                                                                                                                                                                                                                                                                                                                                                                                                                                                              
  1.250000E+02  1.250000E+02 -5.225000E+03  1.262390E-08 -2.087101E-10 -5.693425E-10 -1.260933E-08  7.037681E-11 -1.170300E-12 -3.192390E-12 -7.029462E-11  0.000000E+00  0.000000E+00  0.000000E+00  0.000000E+00  0.000000E+00  0.000000E+00  0.000000E+00  0.000000E+00  2.312939E-01  4.279215E-04  6.241716E-04  2.312926E-01                                                                                                                                                                                                                                                                                                                                                                                                                                                                                              
  3.750000E+02  1.250000E+02 -5.225000E+03  1.291102E-08 -5.050337E-10 -5.824748E-10 -1.288799E-08  7.197301E-11 -2.831748E-12 -3.265809E-12 -7.184309E-11  0.000000E+00  0.000000E+00  0.000000E+00  0.000000E+00  0.000000E+00  0.000000E+00  0.000000E+00  0.000000E+00  2.317355E-01  1.033280E-03  6.581916E-04  2.317323E-01                                                                                                                                                                                                                                                                                                                                                                                                                                                                                              
  6.250000E+02  1.250000E+02 -5.225000E+03  1.328701E-08 -5.269931E-10 -5.942027E-10 -1.326325E-08  7.406179E-11 -2.954678E-12 -3.331257E-12 -7.392781E-11  0.000000E+00  0.000000E+00  0.000000E+00  0.000000E+00  0.000000E+00  0.000000E+00  0.000000E+00  0.000000E+00  2.323241E-01  1.081845E-03  6.860551E-04  2.323206E-01                                                                                                                                                                                                                                                                                                                                                                                                                                                                                              
  8.750000E+02  1.250000E+02 -5.225000E+03  1.358456E-08 -2.717262E-10 -5.989264E-10 -1.356863E-08  7.571381E-11 -1.523401E-12 -3.357500E-12 -7.562398E-11  0.000000E+00  0.000000E+00  0.000000E+00  0.000000E+00  0.000000E+00  0.000000E+00  0.000000E+00  0.000000E+00  2.328263E-01  5.620049E-04  6.945334E-04  2.328246E-01                                                                                                                                                                                                                                                                                                                                                                                                                                                                                              
  1.050000E+03  1.250000E+02 -5.225000E+03  1.362059E-08  3.332813E-14 -5.994585E-10 -1.360740E-08  7.591371E-11  1.868438E-16 -3.360453E-12 -7.583929E-11  0.000000E+00  0.000000E+00  0.000000E+00  0.000000E+00  0.000000E+00  0.000000E+00  0.000000E+00  0.000000E+00  2.328934E-01  2.877318E-08  6.952192E-04  2.328923E-01                                                                                                                                                                                                                                                                                                                                                                                                                                                                                              
  1.225000E+03  1.250000E+02 -5.225000E+03  1.358456E-08  2.717380E-10 -5.989459E-10 -1.356863E-08  7.571380E-11  1.523467E-12 -3.357610E-12 -7.562397E-11  0.000000E+00  0.000000E+00  0.000000E+00  0.000000E+00  0.000000E+00  0.000000E+00  0.000000E+00  0.000000E+00  2.328263E-01 -5.620126E-04  6.945244E-04  2.328246E-01                                                                                                                                                                                                                                                                                                                                                                                                                                                                                              
  1.475000E+03  1.250000E+02 -5.225000E+03  1.328702E-08  5.269746E-10 -5.942032E-10 -1.326326E-08  7.406184E-11  2.954574E-12 -3.331261E-12 -7.392787E-11  0.000000E+00  0.000000E+00  0.000000E+00  0.000000E+00  0.000000E+00  0.000000E+00  0.000000E+00  0.000000E+00  2.323241E-01 -1.081852E-03  6.860654E-04  2.323206E-01                                                                                                                                                                                                                                                                                                                                                                                                                                                                                              
  1.725000E+03  1.250000E+02 -5.225000E+03  1.291104E-08  5.050703E-10 -5.824795E-10 -1.288800E-08  7.197308E-11  2.831954E-12 -3.265835E-12 -7.184315E-11  0.000000E+00  0.000000E+00  0.000000E+00  0.000000E+00  0.000000E+00  0.000000E+00  0.000000E+00  0.000000E+00  2.317355E-01 -1.033228E-03  6.581794E-04  2.317323E-01                                                                                                                                                                                                                                                                                                                                                                                                                                                                                              
  1.975000E+03  1.250000E+02 -5.225000E+03  1.262392E-08  2.087439E-10 -5.693772E-10 -1.260935E-08  7.037695E-11  1.170489E-12 -3.192584E-12 -7.029475E-11  0.000000E+00  0.000000E+00  0.000000E+00  0.000000E+00  0.000000E+00  0.000000E+00  0.000000E+00  0.000000E+00  2.312938E-01 -4.278990E-04  6.241483E-04  2.312926E-01                                                                                                                                                                                                                                                                                                                                                                                                                                                                                              
  1.250000E+02  1.250000E+02 -4.975000E+03  2.211445E-08 -1.752642E-10 -4.631169E-10 -2.210891E-08  1.214434E-10 -9.658632E-13 -2.552074E-12 -1.214128E-10  0.000000E+00  0.000000E+00  0.000000E+00  0.000000E+00  0.000000E+00  0.000000E+00  0.000000E+00  0.000000E+00  4.162002E-01  9.551151E-04  1.683977E-03  4.161956E-01                                                                                                                                                                                                                                                                                                                                                                                                                                                                                              
  3.750000E+02  1.250000E+02 -4.975000E+03  2.258454E-08 -4.142821E-10 -4.878625E-10 -2.257547E-08  1.240109E-10 -2.282901E-12 -2.688134E-12 -1.239607E-10  0.000000E+00  0.000000E+00  0.000000E+00  0.000000E+00  0.000000E+00  0.000000E+00  0.000000E+00  0.000000E+00  4.172814E-01  2.272743E-03  1.822102E-03  4.172712E-01                                                                                                                                                                                                                                                                                                                                                                                                                                                                                              
  6.250000E+02  1.250000E+02 -4.975000E+03  2.318603E-08 -4.292992E-10 -5.068285E-10 -2.317652E-08  1.272951E-10 -2.365388E-12 -2.792214E-12 -1.272425E-10  0.000000E+00  0.000000E+00  0.000000E+00  0.000000E+00  0.000000E+00  0.000000E+00  0.000000E+00  0.000000E+00  4.186079E-01  2.393553E-03  1.922335E-03  4.185966E-01                                                                                                                                                                                                                                                                                                                                                                                                                                                                                              
  8.750000E+02  1.250000E+02 -4.975000E+03  2.370079E-08 -2.240297E-10 -5.130021E-10 -2.369418E-08  1.301039E-10 -1.234273E-12 -2.825887E-12 -1.300673E-10  0.000000E+00  0.000000E+00  0.000000E+00  0.000000E+00  0.000000E+00  0.000000E+00  0.000000E+00  0.000000E+00  4.199220E-01  1.275213E-03  1.945415E-03  4.199155E-01                                                                                                                                                                                                                                                                                                                                                                                                                                                                                              
  1.050000E+03  1.250000E+02 -4.975000E+03  2.376412E-08  1.274425E-14 -5.138653E-10 -2.375857E-08  1.304492E-10  7.020938E-17 -2.830598E-12 -1.304185E-10  0.000000E+00  0.000000E+00  0.000000E+00  0.000000E+00  0.000000E+00  0.000000E+00  0.000000E+00  0.000000E+00  4.201347E-01 -6.254625E-10  1.946632E-03  4.201302E-01                                                                                                                                                                                                                                                                                                                                                                                                                                                                                              
  1.225000E+03  1.250000E+02 -4.975000E+03  2.370081E-08  2.240314E-10 -5.130175E-10 -2.369419E-08  1.301040E-10  1.234283E-12 -2.825971E-12 -1.300674E-10  0.000000E+00  0.000000E+00  0.000000E+00  0.000000E+00  0.000000E+00  0.000000E+00  0.000000E+00  0.000000E+00  4.199220E-01 -1.275226E-03  1.945398E-03  4.199155E-01                                                                                                                                                                                                                                                                                                                                                                                                                                                                                              
  1.475000E+03  1.250000E+02 -4.975000E+03  2.318603E-08  4.293016E-10 -5.068263E-10 -2.317652E-08  1.272951E-10  2.365401E-12 -2.792202E-12 -1.272425E-10  0.000000E+00  0.000000E+00  0.000000E+00  0.000000E+00  0.000000E+00  0.000000E+00  0.000000E+00  0.000000E+00  4.186079E-01 -2.393539E-03  1.922348E-03  4.185966E-01                                                                                                                                                                                                                                                                                                                                                                                                                                                                                              
  1.725000E+03  1.250000E+02 -4.975000E+03  2.258454E-08  4.143014E-10 -4.878719E-10 -2.257547E-08  1.240109E-10  2.283008E-12 -2.688185E-12 -1.239608E-10  0.000000E+00  0.000000E+00  0.000000E+00  0.000000E+00  0.000000E+00  0.000000E+00  0.000000E+00  0.000000E+00  4.172814E-01 -2.272721E-03  1.822083E-03  4.172712E-01                                                                                                                                                                                                                                                                                                                                                                                                                                                                                              
  1.975000E+03  1.250000E+02 -4.975000E+03  2.211449E-08  1.752701E-10 -4.631196E-10 -2.210894E-08  1.214436E-10  9.658957E-13 -2.552089E-12 -1.214130E-10  0.000000E+00  0.000000E+00  0.000000E+00  0.000000E+00  0.000000E+00  0.000000E+00  0.000000E+00  0.000000E+00  4.162001E-01 -9.551192E-04  1.683978E-03  4.161956E-01                                                                                                                                                                                                                                                                                                                                                                                                                                                                                              
  1.250000E+02  1.250000E+02 -4.725000E+03  2.732031E-08 -1.227009E-10 -3.417280E-10 -2.731790E-08  1.472419E-10 -6.605443E-13 -1.839485E-12 -1.472290E-10  0.000000E+00  0.000000E+00  0.000000E+00  0.000000E+00  0.000000E+00  0.000000E+00  0.000000E+00  0.000000E+00  5.408822E-01  1.916782E-03  3.904115E-03  5.408647E-01                                                                                                                                                                                                                                                                                                                                                                                                                                                                                              
  3.750000E+02  1.250000E+02 -4.725000E+03  2.790893E-08 -2.717286E-10 -3.831545E-10 -2.790498E-08  1.503878E-10 -1.462658E-12 -2.062075E-12 -1.503665E-10  0.000000E+00  0.000000E+00  0.000000E+00  0.000000E+00  0.000000E+00  0.000000E+00  0.000000E+00  0.000000E+00  5.429607E-01  4.409000E-03  4.457430E-03  5.429245E-01                                                                                                                                                                                                                                                                                                                                                                                                                                                                                              
  6.250000E+02  1.250000E+02 -4.725000E+03  2.859869E-08 -2.732495E-10 -4.109280E-10 -2.859444E-08  1.540730E-10 -1.470572E-12 -2.211023E-12 -1.540502E-10  0.000000E+00  0.000000E+00  0.000000E+00  0.000000E+00  0.000000E+00  0.000000E+00  0.000000E+00  0.000000E+00  5.449228E-01  4.750740E-03  4.790211E-03  5.448810E-01                                                                                                                                                                                                                                                                                                                                                                                                                                                                                              
  8.750000E+02  1.250000E+02 -4.725000E+03  2.926603E-08 -1.378409E-10 -4.209463E-10 -2.926267E-08  1.576342E-10 -7.417367E-13 -2.264468E-12 -1.576162E-10  0.000000E+00  0.000000E+00  0.000000E+00  0.000000E+00  0.000000E+00  0.000000E+00  0.000000E+00  0.000000E+00  5.480084E-01  2.738305E-03  4.827744E-03  5.479803E-01                                                                                                                                                                                                                                                                                                                                                                                                                                                                                              
  1.050000E+03  1.250000E+02 -4.725000E+03  2.929059E-08  3.781449E-15 -4.255416E-10 -2.928750E-08  1.577638E-10  2.034622E-17 -2.289122E-12 -1.577472E-10  0.000000E+00  0.000000E+00  0.000000E+00  0.000000E+00  0.000000E+00  0.000000E+00  0.000000E+00  0.000000E+00  5.489096E-01  1.945557E-09  4.823275E-03  5.488884E-01                                                                                                                                                                                                                                                                                                                                                                                                                                                                                              
  1.225000E+03  1.250000E+02 -4.725000E+03  2.926603E-08  1.378417E-10 -4.209475E-10 -2.926268E-08  1.576343E-10  7.417409E-13 -2.264475E-12 -1.576162E-10  0.000000E+00  0.000000E+00  0.000000E+00  0.000000E+00  0.000000E+00  0.000000E+00  0.000000E+00  0.000000E+00  5.480084E-01 -2.738305E-03  4.827746E-03  5.479803E-01                                                                                                                                                                                                                                                                                                                                                                                                                                                                                              
  1.475000E+03  1.250000E+02 -4.725000E+03  2.859869E-08  2.732487E-10 -4.109282E-10 -2.859443E-08  1.540730E-10  1.470568E-12 -2.211024E-12 -1.540501E-10  0.000000E+00  0.000000E+00  0.000000E+00  0.000000E+00  0.000000E+00  0.000000E+00  0.000000E+00  0.000000E+00  5.449228E-01 -4.750743E-03  4.790214E-03  5.448811E-01                                                                                                                                                                                                                                                                                                                                                                                                                                                                                              
  1.725000E+03  1.250000E+02 -4.725000E+03  2.790894E-08  2.717292E-10 -3.831543E-10 -2.790499E-08  1.503878E-10  1.462662E-12 -2.062074E-12 -1.503666E-10  0.000000E+00  0.000000E+00  0.000000E+00  0.000000E+00  0.000000E+00  0.000000E+00  0.000000E+00  0.000000E+00  5.429607E-01 -4.409005E-03  4.457434E-03  5.429245E-01                                                                                                                                                                                                                                                                                                                                                                                                                                                                                              