Title="TOUGHREACT V3.30-OMP flowvector.tec: Liq & Gas Fluxes (kg/s/m^2), Pore Velocities (m/s), & Heat Fluxes (J/s/m2)"                                                                                                                                                                                                                                                                                                                                                                                                                                                                                                                                                                                                                                                                                                         
Variables= "X(m)"     "Y(m)"      "Z(m)"     "FluxLiq"   "FluxLiq_X"   "FluxLiq_Y"   "FluxLiq_Z"   "PorVelLiq"  "PorVelLiqX"  "PorVelLiqY"  "PorVelLiqZ"     "FluxGas"   "FluxGas_X"   "FluxGas_Y"   "FluxGas_Z"   "PorVelGas"  "PorVelGasX"  "PorVelGasY"  "PorVelGasZ"    "HeatFlux"  "HeatFlux_X"  "HeatFlux_Y"  "HeatFlux_Z"                                                                                                                                                                                                                                                                                                                                                                                                                                                                                                
Zone T= "1.00000000E+07 sec" I=     9 J=    10 K=    23 F=Point
  1.250000E+02  1.250000E+02 -5.425000E+03  2.693958E-09 -2.683223E-10 -7.006876E-10 -2.587363E-09  1.514562E-11 -1.512971E-12 -3.950836E-12 -1.454275E-11  0.000000E+00  0.000000E+00  0.000000E+00  0.000000E+00  0.000000E+00  0.000000E+00  0.000000E+00  0.000000E+00  6.527833E-02  2.331051E-04  2.439395E-04  6.527746E-02                                                                                                                                                                                                                                                                                                                                                                                                                                                                                              
  3.750000E+02  1.250000E+02 -5.425000E+03  2.842513E-09 -6.536767E-10 -7.119920E-10 -2.673136E-09  1.598187E-11 -3.685710E-12 -4.014368E-12 -1.502400E-11  0.000000E+00  0.000000E+00  0.000000E+00  0.000000E+00  0.000000E+00  0.000000E+00  0.000000E+00  0.000000E+00  6.537996E-02  5.647226E-04  2.574963E-04  6.537702E-02                                                                                                                                                                                                                                                                                                                                                                                                                                                                                              
  6.250000E+02  1.250000E+02 -5.425000E+03  2.964445E-09 -6.942482E-10 -7.229351E-10 -2.789860E-09  1.666604E-11 -3.914259E-12 -4.075769E-12 -1.567876E-11  0.000000E+00  0.000000E+00  0.000000E+00  0.000000E+00  0.000000E+00  0.000000E+00  0.000000E+00  0.000000E+00  6.551750E-02  5.810232E-04  2.690142E-04  6.551437E-02                                                                                                                                                                                                                                                                                                                                                                                                                                                                                              
  8.750000E+02  1.250000E+02 -5.425000E+03  3.004244E-09 -4.975720E-10 -7.278503E-10 -2.871957E-09  1.688719E-11 -2.805240E-12 -4.103248E-12 -1.613912E-11  0.000000E+00  0.000000E+00  0.000000E+00  0.000000E+00  0.000000E+00  0.000000E+00  0.000000E+00  0.000000E+00  6.563732E-02  1.684577E-04  2.725760E-04  6.563654E-02                                                                                                                                                                                                                                                                                                                                                                                                                                                                                              
  1.050000E+03  1.250000E+02 -5.425000E+03  2.868708E-09  1.508972E-14 -7.283704E-10 -2.774701E-09  1.612406E-11  8.507176E-17 -4.106153E-12 -1.559246E-11  0.000000E+00  0.000000E+00  0.000000E+00  0.000000E+00  0.000000E+00  0.000000E+00  0.000000E+00  0.000000E+00  6.575170E-02  1.909633E-08  2.728980E-04  6.575113E-02                                                                                                                                                                                                                                                                                                                                                                                                                                                                                              
  1.225000E+03  1.250000E+02 -5.425000E+03  3.004243E-09  4.975858E-10 -7.278523E-10 -2.871953E-09  1.688719E-11  2.805318E-12 -4.103259E-12 -1.613910E-11  0.000000E+00  0.000000E+00  0.000000E+00  0.000000E+00  0.000000E+00  0.000000E+00  0.000000E+00  0.000000E+00  6.563732E-02 -1.684498E-04  2.725639E-04  6.563654E-02                                                                                                                                                                                                                                                                                                                                                                                                                                                                                              
  1.475000E+03  1.250000E+02 -5.425000E+03  2.964454E-09  6.942504E-10 -7.229420E-10 -2.789868E-09  1.666609E-11  3.914271E-12 -4.075808E-12 -1.567880E-11  0.000000E+00  0.000000E+00  0.000000E+00  0.000000E+00  0.000000E+00  0.000000E+00  0.000000E+00  0.000000E+00  6.551748E-02 -5.809950E-04  2.689929E-04  6.551435E-02                                                                                                                                                                                                                                                                                                                                                                                                                                                                                              
  1.725000E+03  1.250000E+02 -5.425000E+03  2.842522E-09  6.537015E-10 -7.120003E-10 -2.673137E-09  1.598192E-11  3.685850E-12 -4.014415E-12 -1.502400E-11  0.000000E+00  0.000000E+00  0.000000E+00  0.000000E+00  0.000000E+00  0.000000E+00  0.000000E+00  0.000000E+00  6.537994E-02 -5.646889E-04  2.574668E-04  6.537699E-02                                                                                                                                                                                                                                                                                                                                                                                                                                                                                              
  1.975000E+03  1.250000E+02 -5.425000E+03  2.693966E-09  2.683436E-10 -7.007096E-10 -2.587363E-09  1.514566E-11  1.513091E-12 -3.950960E-12 -1.454275E-11  0.000000E+00  0.000000E+00  0.000000E+00  0.000000E+00  0.000000E+00  0.000000E+00  0.000000E+00  0.000000E+00  6.527833E-02 -2.331108E-04  2.439064E-04  6.527745E-02                                                                                                                                                                                                                                                                                                                                                                                                                                                                                              
  1.250000E+02  1.250000E+02 -5.225000E+03  1.161642E-08 -2.086932E-10 -5.692803E-10 -1.160058E-08  6.471858E-11 -1.170202E-12 -3.192031E-12 -6.462922E-11  0.000000E+00  0.000000E+00  0.000000E+00  0.000000E+00  0.000000E+00  0.000000E+00  0.000000E+00  0.000000E+00  2.321772E-01  4.279445E-04  6.242631E-04  2.321760E-01                                                                                                                                                                                                                                                                                                                                                                                                                                                                                              
  3.750000E+02  1.250000E+02 -5.225000E+03  1.190458E-08 -5.050915E-10 -5.824088E-10 -1.187959E-08  6.632098E-11 -2.832063E-12 -3.265428E-12 -6.617997E-11  0.000000E+00  0.000000E+00  0.000000E+00  0.000000E+00  0.000000E+00  0.000000E+00  0.000000E+00  0.000000E+00  2.326183E-01  1.033253E-03  6.582861E-04  2.326151E-01                                                                                                                                                                                                                                                                                                                                                                                                                                                                                              
  6.250000E+02  1.250000E+02 -5.225000E+03  1.228035E-08 -5.284488E-10 -5.941387E-10 -1.225458E-08  6.840905E-11 -2.962830E-12 -3.330888E-12 -6.826365E-11  0.000000E+00  0.000000E+00  0.000000E+00  0.000000E+00  0.000000E+00  0.000000E+00  0.000000E+00  0.000000E+00  2.332067E-01  1.080627E-03  6.861483E-04  2.332032E-01                                                                                                                                                                                                                                                                                                                                                                                                                                                                                              
  8.750000E+02  1.250000E+02 -5.225000E+03  1.256502E-08 -2.822720E-10 -5.988674E-10 -1.254756E-08  6.998906E-11 -1.582518E-12 -3.357159E-12 -6.989058E-11  0.000000E+00  0.000000E+00  0.000000E+00  0.000000E+00  0.000000E+00  0.000000E+00  0.000000E+00  0.000000E+00  2.337189E-01  5.530306E-04  6.946235E-04  2.337173E-01                                                                                                                                                                                                                                                                                                                                                                                                                                                                                              
  1.050000E+03  1.250000E+02 -5.225000E+03  1.248608E-08  2.013822E-14 -5.993843E-10 -1.247168E-08  6.954325E-11  1.128984E-16 -3.360027E-12 -6.946203E-11  0.000000E+00  0.000000E+00  0.000000E+00  0.000000E+00  0.000000E+00  0.000000E+00  0.000000E+00  0.000000E+00  2.338904E-01  1.757101E-08  6.953222E-04  2.338894E-01                                                                                                                                                                                                                                                                                                                                                                                                                                                                                              
  1.225000E+03  1.250000E+02 -5.225000E+03  1.256502E-08  2.822780E-10 -5.988809E-10 -1.254757E-08  6.998908E-11  1.582552E-12 -3.357235E-12 -6.989060E-11  0.000000E+00  0.000000E+00  0.000000E+00  0.000000E+00  0.000000E+00  0.000000E+00  0.000000E+00  0.000000E+00  2.337189E-01 -5.530435E-04  6.946195E-04  2.337172E-01                                                                                                                                                                                                                                                                                                                                                                                                                                                                                              
  1.475000E+03  1.250000E+02 -5.225000E+03  1.228035E-08  5.284510E-10 -5.941322E-10 -1.225459E-08  6.840906E-11  2.962842E-12 -3.330852E-12 -6.826365E-11  0.000000E+00  0.000000E+00  0.000000E+00  0.000000E+00  0.000000E+00  0.000000E+00  0.000000E+00  0.000000E+00  2.332067E-01 -1.080616E-03  6.861651E-04  2.332032E-01                                                                                                                                                                                                                                                                                                                                                                                                                                                                                              
  1.725000E+03  1.250000E+02 -5.225000E+03  1.190459E-08  5.051259E-10 -5.824218E-10 -1.187960E-08  6.632103E-11  2.832256E-12 -3.265501E-12 -6.618001E-11  0.000000E+00  0.000000E+00  0.000000E+00  0.000000E+00  0.000000E+00  0.000000E+00  0.000000E+00  0.000000E+00  2.326182E-01 -1.033202E-03  6.582664E-04  2.326150E-01                                                                                                                                                                                                                                                                                                                                                                                                                                                                                              
  1.975000E+03  1.250000E+02 -5.225000E+03  1.161643E-08  2.087112E-10 -5.693099E-10 -1.160060E-08  6.471867E-11  1.170302E-12 -3.192197E-12 -6.462930E-11  0.000000E+00  0.000000E+00  0.000000E+00  0.000000E+00  0.000000E+00  0.000000E+00  0.000000E+00  0.000000E+00  2.321772E-01 -4.279356E-04  6.242440E-04  2.321759E-01                                                                                                                                                                                                                                                                                                                                                                                                                                                                                              
  1.250000E+02  1.250000E+02 -4.975000E+03  2.203764E-08 -1.752551E-10 -4.630909E-10 -2.203207E-08  1.210169E-10 -9.658106E-13 -2.551925E-12 -1.209861E-10  0.000000E+00  0.000000E+00  0.000000E+00  0.000000E+00  0.000000E+00  0.000000E+00  0.000000E+00  0.000000E+00  4.162422E-01  9.551048E-04  1.683976E-03  4.162377E-01                                                                                                                                                                                                                                                                                                                                                                                                                                                                                              
  3.750000E+02  1.250000E+02 -4.975000E+03  2.250776E-08 -4.142684E-10 -4.878458E-10 -2.249866E-08  1.235846E-10 -2.282821E-12 -2.688035E-12 -1.235342E-10  0.000000E+00  0.000000E+00  0.000000E+00  0.000000E+00  0.000000E+00  0.000000E+00  0.000000E+00  0.000000E+00  4.173234E-01  2.272712E-03  1.822090E-03  4.173132E-01                                                                                                                                                                                                                                                                                                                                                                                                                                                                                              
  6.250000E+02  1.250000E+02 -4.975000E+03  2.310922E-08 -4.293699E-10 -5.068094E-10 -2.309967E-08  1.268687E-10 -2.365772E-12 -2.792102E-12 -1.268159E-10  0.000000E+00  0.000000E+00  0.000000E+00  0.000000E+00  0.000000E+00  0.000000E+00  0.000000E+00  0.000000E+00  4.186497E-01  2.393452E-03  1.922322E-03  4.186384E-01                                                                                                                                                                                                                                                                                                                                                                                                                                                                                              
  8.750000E+02  1.250000E+02 -4.975000E+03  2.362273E-08 -2.244959E-10 -5.129874E-10 -2.361609E-08  1.296705E-10 -1.236839E-12 -2.825799E-12 -1.296338E-10  0.000000E+00  0.000000E+00  0.000000E+00  0.000000E+00  0.000000E+00  0.000000E+00  0.000000E+00  0.000000E+00  4.199646E-01  1.274824E-03  1.945399E-03  4.199582E-01                                                                                                                                                                                                                                                                                                                                                                                                                                                                                              
  1.050000E+03  1.250000E+02 -4.975000E+03  2.368018E-08  5.576710E-15 -5.138439E-10 -2.367460E-08  1.299832E-10  3.072265E-17 -2.830474E-12 -1.299524E-10  0.000000E+00  0.000000E+00  0.000000E+00  0.000000E+00  0.000000E+00  0.000000E+00  0.000000E+00  0.000000E+00  4.201819E-01 -6.304110E-09  1.946622E-03  4.201774E-01                                                                                                                                                                                                                                                                                                                                                                                                                                                                                              
  1.225000E+03  1.250000E+02 -4.975000E+03  2.362274E-08  2.245006E-10 -5.129943E-10 -2.361610E-08  1.296705E-10  1.236865E-12 -2.825838E-12 -1.296338E-10  0.000000E+00  0.000000E+00  0.000000E+00  0.000000E+00  0.000000E+00  0.000000E+00  0.000000E+00  0.000000E+00  4.199646E-01 -1.274835E-03  1.945389E-03  4.199582E-01                                                                                                                                                                                                                                                                                                                                                                                                                                                                                              
  1.475000E+03  1.250000E+02 -4.975000E+03  2.310922E-08  4.293769E-10 -5.068031E-10 -2.309967E-08  1.268686E-10  2.365811E-12 -2.792068E-12 -1.268158E-10  0.000000E+00  0.000000E+00  0.000000E+00  0.000000E+00  0.000000E+00  0.000000E+00  0.000000E+00  0.000000E+00  4.186497E-01 -2.393434E-03  1.922339E-03  4.186385E-01                                                                                                                                                                                                                                                                                                                                                                                                                                                                                              
  1.725000E+03  1.250000E+02 -4.975000E+03  2.250778E-08  4.142824E-10 -4.878494E-10 -2.249868E-08  1.235847E-10  2.282898E-12 -2.688055E-12 -1.235343E-10  0.000000E+00  0.000000E+00  0.000000E+00  0.000000E+00  0.000000E+00  0.000000E+00  0.000000E+00  0.000000E+00  4.173233E-01 -2.272695E-03  1.822075E-03  4.173132E-01                                                                                                                                                                                                                                                                                                                                                                                                                                                                                              
  1.975000E+03  1.250000E+02 -4.975000E+03  2.203767E-08  1.752611E-10 -4.630960E-10 -2.203210E-08  1.210170E-10  9.658441E-13 -2.551953E-12 -1.209862E-10  0.000000E+00  0.000000E+00  0.000000E+00  0.000000E+00  0.000000E+00  0.000000E+00  0.000000E+00  0.000000E+00  4.162422E-01 -9.551088E-04  1.683975E-03  4.162377E-01                                                                                                                                                                                                                                                                                                                                                                                                                                                                                              
  1.250000E+02  1.250000E+02 -4.725000E+03  2.731447E-08 -1.226944E-10 -3.417147E-10 -2.731205E-08  1.472101E-10 -6.605087E-13 -1.839411E-12 -1.471971E-10  0.000000E+00  0.000000E+00  0.000000E+00  0.000000E+00  0.000000E+00  0.000000E+00  0.000000E+00  0.000000E+00  5.408594E-01  1.916726E-03  3.903995E-03  5.408419E-01                                                                                                                                                                                                                                                                                                                                                                                                                                                                                              
  3.750000E+02  1.250000E+02 -4.725000E+03  2.790307E-08 -2.717190E-10 -3.831430E-10 -2.789912E-08  1.503559E-10 -1.462605E-12 -2.062011E-12 -1.503346E-10  0.000000E+00  0.000000E+00  0.000000E+00  0.000000E+00  0.000000E+00  0.000000E+00  0.000000E+00  0.000000E+00  5.429378E-01  4.408865E-03  4.457292E-03  5.429016E-01                                                                                                                                                                                                                                                                                                                                                                                                                                                                                              
  6.250000E+02  1.250000E+02 -4.725000E+03  2.859280E-08 -2.732434E-10 -4.109121E-10 -2.858855E-08  1.540410E-10 -1.470538E-12 -2.210935E-12 -1.540181E-10  0.000000E+00  0.000000E+00  0.000000E+00  0.000000E+00  0.000000E+00  0.000000E+00  0.000000E+00  0.000000E+00  5.448998E-01  4.750583E-03  4.790066E-03  5.448580E-01                                                                                                                                                                                                                                                                                                                                                                                                                                                                                              
  8.750000E+02  1.250000E+02 -4.725000E+03  2.926004E-08 -1.378505E-10 -4.209321E-10 -2.925669E-08  1.576016E-10 -7.417880E-13 -2.264390E-12 -1.575836E-10  0.000000E+00  0.000000E+00  0.000000E+00  0.000000E+00  0.000000E+00  0.000000E+00  0.000000E+00  0.000000E+00  5.479853E-01  2.738202E-03  4.827597E-03  5.479572E-01                                                                                                                                                                                                                                                                                                                                                                                                                                                                                              
  1.050000E+03  1.250000E+02 -4.725000E+03  2.928436E-08  3.038499E-15 -4.255265E-10 -2.928127E-08  1.577299E-10  1.634874E-17 -2.289039E-12 -1.577133E-10  0.000000E+00  0.000000E+00  0.000000E+00  0.000000E+00  0.000000E+00  0.000000E+00  0.000000E+00  0.000000E+00  5.488866E-01  1.453170E-09  4.823129E-03  5.488654E-01                                                                                                                                                                                                                                                                                                                                                                                                                                                                                              
  1.225000E+03  1.250000E+02 -4.725000E+03  2.926005E-08  1.378522E-10 -4.209344E-10 -2.925669E-08  1.576016E-10  7.417971E-13 -2.264403E-12 -1.575836E-10  0.000000E+00  0.000000E+00  0.000000E+00  0.000000E+00  0.000000E+00  0.000000E+00  0.000000E+00  0.000000E+00  5.479853E-01 -2.738201E-03  4.827598E-03  5.479572E-01                                                                                                                                                                                                                                                                                                                                                                                                                                                                                              
  1.475000E+03  1.250000E+02 -4.725000E+03  2.859281E-08  2.732423E-10 -4.109144E-10 -2.858855E-08  1.540410E-10  1.470532E-12 -2.210948E-12 -1.540181E-10  0.000000E+00  0.000000E+00  0.000000E+00  0.000000E+00  0.000000E+00  0.000000E+00  0.000000E+00  0.000000E+00  5.448998E-01 -4.750586E-03  4.790067E-03  5.448580E-01                                                                                                                                                                                                                                                                                                                                                                                                                                                                                              
  1.725000E+03  1.250000E+02 -4.725000E+03  2.790308E-08  2.717193E-10 -3.831410E-10 -2.789913E-08  1.503559E-10  1.462606E-12 -2.062000E-12 -1.503347E-10  0.000000E+00  0.000000E+00  0.000000E+00  0.000000E+00  0.000000E+00  0.000000E+00  0.000000E+00  0.000000E+00  5.429378E-01 -4.408870E-03  4.457297E-03  5.429016E-01                                                                                                                                                                                                                                                                                                                                                                                                                                                                                              