Title="TOUGHREACT V3.30-OMP flowvector.tec: Liq & Gas Fluxes (kg/s/m^2), Pore Velocities (m/s), & Heat Fluxes (J/s/m2)"                                                                                                                                                                                                                                                                                                                                                                                                                                                                                                                                                                                                                                                                                                         
Variables= "X(m)"     "Y(m)"      "Z(m)"     "FluxLiq"   "FluxLiq_X"   "FluxLiq_Y"   "FluxLiq_Z"   "PorVelLiq"  "PorVelLiqX"  "PorVelLiqY"  "PorVelLiqZ"     "FluxGas"   "FluxGas_X"   "FluxGas_Y"   "FluxGas_Z"   "PorVelGas"  "PorVelGasX"  "PorVelGasY"  "PorVelGasZ"    "HeatFlux"  "HeatFlux_X"  "HeatFlux_Y"  "HeatFlux_Z"                                                                                                                                                                                                                                                                                                                                                                                                                                                                                                
Zone T= "1.00000000E+09 sec" I=     9 J=    10 K=    23 F=Point
  1.250000E+02  1.250000E+02 -5.425000E+03  7.688787E-10 -2.859163E-10 -7.054560E-10  1.084355E-10  4.334895E-12 -1.612088E-12 -3.977502E-12  6.098836E-13  0.000000E+00  0.000000E+00  0.000000E+00  0.000000E+00  0.000000E+00  0.000000E+00  0.000000E+00  0.000000E+00  7.080403E-02  2.189893E-04  2.444736E-04  7.080327E-02                                                                                                                                                                                                                                                                                                                                                                                                                                                                                              
  3.750000E+02  1.250000E+02 -5.425000E+03  1.008380E-09 -7.093244E-10 -7.163067E-10  2.436168E-11  5.685248E-12 -3.999252E-12 -4.038471E-12  1.370118E-13  0.000000E+00  0.000000E+00  0.000000E+00  0.000000E+00  0.000000E+00  0.000000E+00  0.000000E+00  0.000000E+00  7.090310E-02  5.191402E-04  2.585130E-04  7.090073E-02                                                                                                                                                                                                                                                                                                                                                                                                                                                                                              
  6.250000E+02  1.250000E+02 -5.425000E+03  1.082670E-09 -7.978542E-10 -7.271245E-10 -8.301806E-11  6.103608E-12 -4.498147E-12 -4.099159E-12 -4.664712E-13  0.000000E+00  0.000000E+00  0.000000E+00  0.000000E+00  0.000000E+00  0.000000E+00  0.000000E+00  0.000000E+00  7.104552E-02  4.831286E-04  2.702511E-04  7.104336E-02                                                                                                                                                                                                                                                                                                                                                                                                                                                                                              
  8.750000E+02  1.250000E+02 -5.425000E+03  9.339266E-10 -5.637098E-10 -7.320785E-10 -1.360558E-10  5.264487E-12 -3.177972E-12 -4.126857E-12 -7.644379E-13  0.000000E+00  0.000000E+00  0.000000E+00  0.000000E+00  0.000000E+00  0.000000E+00  0.000000E+00  0.000000E+00  7.120433E-02 -6.012233E-04  2.738942E-04  7.120126E-02                                                                                                                                                                                                                                                                                                                                                                                                                                                                                              
  1.050000E+03  1.250000E+02 -5.425000E+03  7.328576E-10 -5.231848E-15 -7.327823E-10  1.050287E-11  4.131435E-12 -2.949513E-17 -4.131013E-12  5.906131E-14  0.000000E+00  0.000000E+00  0.000000E+00  0.000000E+00  0.000000E+00  0.000000E+00  0.000000E+00  0.000000E+00  7.196252E-02 -3.282605E-10  2.739199E-04  7.196200E-02                                                                                                                                                                                                                                                                                                                                                                                                                                                                                              
  1.225000E+03  1.250000E+02 -5.425000E+03  9.339145E-10  5.636960E-10 -7.320740E-10 -1.360542E-10  5.264419E-12  3.177894E-12 -4.126832E-12 -7.644287E-13  0.000000E+00  0.000000E+00  0.000000E+00  0.000000E+00  0.000000E+00  0.000000E+00  0.000000E+00  0.000000E+00  7.120433E-02  6.012067E-04  2.738898E-04  7.120126E-02                                                                                                                                                                                                                                                                                                                                                                                                                                                                                              
  1.475000E+03  1.250000E+02 -5.425000E+03  1.082652E-09  7.978379E-10 -7.271157E-10 -8.301638E-11  6.103506E-12  4.498055E-12 -4.099110E-12 -4.664617E-13  0.000000E+00  0.000000E+00  0.000000E+00  0.000000E+00  0.000000E+00  0.000000E+00  0.000000E+00  0.000000E+00  7.104551E-02 -4.831191E-04  2.702472E-04  7.104335E-02                                                                                                                                                                                                                                                                                                                                                                                                                                                                                              
  1.725000E+03  1.250000E+02 -5.425000E+03  1.008374E-09  7.093303E-10 -7.162933E-10  2.434936E-11  5.685216E-12  3.999286E-12 -4.038396E-12  1.369425E-13  0.000000E+00  0.000000E+00  0.000000E+00  0.000000E+00  0.000000E+00  0.000000E+00  0.000000E+00  0.000000E+00  7.090306E-02 -5.191239E-04  2.585043E-04  7.090069E-02                                                                                                                                                                                                                                                                                                                                                                                                                                                                                              
  1.975000E+03  1.250000E+02 -5.425000E+03  7.688756E-10  2.859299E-10 -7.054465E-10  1.084394E-10  4.334877E-12  1.612165E-12 -3.977449E-12  6.099056E-13  0.000000E+00  0.000000E+00  0.000000E+00  0.000000E+00  0.000000E+00  0.000000E+00  0.000000E+00  0.000000E+00  7.080403E-02 -2.189989E-04  2.444694E-04  7.080327E-02                                                                                                                                                                                                                                                                                                                                                                                                                                                                                              
  1.250000E+02  1.250000E+02 -5.225000E+03  5.525010E-09 -2.222089E-10 -5.715692E-10 -5.490871E-09  3.069037E-11 -1.245597E-12 -3.203859E-12 -3.049726E-11  0.000000E+00  0.000000E+00  0.000000E+00  0.000000E+00  0.000000E+00  0.000000E+00  0.000000E+00  0.000000E+00  2.398274E-01  4.172701E-04  6.260650E-04  2.398263E-01                                                                                                                                                                                                                                                                                                                                                                                                                                                                                              
  3.750000E+02  1.250000E+02 -5.225000E+03  5.820463E-09 -5.468634E-10 -5.851060E-10 -5.765100E-09  3.233694E-11 -3.065316E-12 -3.279521E-12 -3.202383E-11  0.000000E+00  0.000000E+00  0.000000E+00  0.000000E+00  0.000000E+00  0.000000E+00  0.000000E+00  0.000000E+00  2.402647E-01  9.997373E-04  6.596904E-04  2.402618E-01                                                                                                                                                                                                                                                                                                                                                                                                                                                                                              
  6.250000E+02  1.250000E+02 -5.225000E+03  6.179293E-09 -5.980375E-10 -5.970544E-10 -6.121237E-09  3.433351E-11 -3.351932E-12 -3.346184E-12 -3.400525E-11  0.000000E+00  0.000000E+00  0.000000E+00  0.000000E+00  0.000000E+00  0.000000E+00  0.000000E+00  0.000000E+00  2.408603E-01  1.023200E-03  6.874241E-04  2.408571E-01                                                                                                                                                                                                                                                                                                                                                                                                                                                                                              
  8.750000E+02  1.250000E+02 -5.225000E+03  6.403368E-09 -3.504936E-10 -6.018533E-10 -6.365379E-09  3.557621E-11 -1.964373E-12 -3.372838E-12 -3.536144E-11  0.000000E+00  0.000000E+00  0.000000E+00  0.000000E+00  0.000000E+00  0.000000E+00  0.000000E+00  0.000000E+00  2.414194E-01  4.834201E-04  6.959457E-04  2.414180E-01                                                                                                                                                                                                                                                                                                                                                                                                                                                                                              
  1.050000E+03  1.250000E+02 -5.225000E+03  6.254769E-09 -2.471867E-15 -6.023563E-10 -6.225697E-09  3.474013E-11 -1.385341E-17 -3.375630E-12 -3.457573E-11  0.000000E+00  0.000000E+00  0.000000E+00  0.000000E+00  0.000000E+00  0.000000E+00  0.000000E+00  0.000000E+00  2.422564E-01  3.811253E-10  6.966676E-04  2.422554E-01                                                                                                                                                                                                                                                                                                                                                                                                                                                                                              
  1.225000E+03  1.250000E+02 -5.225000E+03  6.403364E-09  3.504796E-10 -6.018470E-10 -6.365376E-09  3.557618E-11  1.964294E-12 -3.372803E-12 -3.536143E-11  0.000000E+00  0.000000E+00  0.000000E+00  0.000000E+00  0.000000E+00  0.000000E+00  0.000000E+00  0.000000E+00  2.414194E-01 -4.834484E-04  6.959493E-04  2.414179E-01                                                                                                                                                                                                                                                                                                                                                                                                                                                                                              
  1.475000E+03  1.250000E+02 -5.225000E+03  6.179285E-09  5.980142E-10 -5.970422E-10 -6.121232E-09  3.433346E-11  3.351801E-12 -3.346115E-12 -3.400523E-11  0.000000E+00  0.000000E+00  0.000000E+00  0.000000E+00  0.000000E+00  0.000000E+00  0.000000E+00  0.000000E+00  2.408603E-01 -1.023212E-03  6.874453E-04  2.408571E-01                                                                                                                                                                                                                                                                                                                                                                                                                                                                                              
  1.725000E+03  1.250000E+02 -5.225000E+03  5.820465E-09  5.468746E-10 -5.850785E-10 -5.765104E-09  3.233695E-11  3.065378E-12 -3.279367E-12 -3.202386E-11  0.000000E+00  0.000000E+00  0.000000E+00  0.000000E+00  0.000000E+00  0.000000E+00  0.000000E+00  0.000000E+00  2.402647E-01 -9.997076E-04  6.596997E-04  2.402617E-01                                                                                                                                                                                                                                                                                                                                                                                                                                                                                              
  1.975000E+03  1.250000E+02 -5.225000E+03  5.525016E-09  2.222317E-10 -5.715583E-10 -5.490878E-09  3.069041E-11  1.245725E-12 -3.203798E-12 -3.049729E-11  0.000000E+00  0.000000E+00  0.000000E+00  0.000000E+00  0.000000E+00  0.000000E+00  0.000000E+00  0.000000E+00  2.398274E-01 -4.172566E-04  6.260781E-04  2.398262E-01                                                                                                                                                                                                                                                                                                                                                                                                                                                                                              
  1.250000E+02  1.250000E+02 -4.975000E+03  1.547263E-08 -1.836010E-10 -4.656430E-10 -1.546453E-08  8.486899E-11 -1.011576E-12 -2.565411E-12 -8.482418E-11  0.000000E+00  0.000000E+00  0.000000E+00  0.000000E+00  0.000000E+00  0.000000E+00  0.000000E+00  0.000000E+00  4.193488E-01  9.468629E-04  1.679846E-03  4.193443E-01                                                                                                                                                                                                                                                                                                                                                                                                                                                                                              
  3.750000E+02  1.250000E+02 -4.975000E+03  1.593972E-08 -4.377665E-10 -4.907634E-10 -1.592615E-08  8.742355E-11 -2.411763E-12 -2.703504E-12 -8.734845E-11  0.000000E+00  0.000000E+00  0.000000E+00  0.000000E+00  0.000000E+00  0.000000E+00  0.000000E+00  0.000000E+00  4.204229E-01  2.250287E-03  1.817279E-03  4.204130E-01                                                                                                                                                                                                                                                                                                                                                                                                                                                                                              
  6.250000E+02  1.250000E+02 -4.975000E+03  1.652666E-08 -4.618504E-10 -5.099717E-10 -1.651233E-08  9.063231E-11 -2.544162E-12 -2.808894E-12 -9.055304E-11  0.000000E+00  0.000000E+00  0.000000E+00  0.000000E+00  0.000000E+00  0.000000E+00  0.000000E+00  0.000000E+00  4.217460E-01  2.363543E-03  1.917121E-03  4.217350E-01                                                                                                                                                                                                                                                                                                                                                                                                                                                                                              
  8.750000E+02  1.250000E+02 -4.975000E+03  1.701137E-08 -2.473932E-10 -5.162209E-10 -1.700174E-08  9.327903E-11 -1.362683E-12 -2.842974E-12 -9.322573E-11  0.000000E+00  0.000000E+00  0.000000E+00  0.000000E+00  0.000000E+00  0.000000E+00  0.000000E+00  0.000000E+00  4.230685E-01  1.254214E-03  1.940182E-03  4.230622E-01                                                                                                                                                                                                                                                                                                                                                                                                                                                                                              
  1.050000E+03  1.250000E+02 -4.975000E+03  1.705147E-08 -1.871701E-15 -5.170721E-10 -1.704363E-08  9.349621E-11 -1.030896E-17 -2.847618E-12 -9.345283E-11  0.000000E+00  0.000000E+00  0.000000E+00  0.000000E+00  0.000000E+00  0.000000E+00  0.000000E+00  0.000000E+00  4.233052E-01 -1.299057E-08  1.941417E-03  4.233007E-01                                                                                                                                                                                                                                                                                                                                                                                                                                                                                              
  1.225000E+03  1.250000E+02 -4.975000E+03  1.701137E-08  2.473803E-10 -5.162207E-10 -1.700173E-08  9.327902E-11  1.362612E-12 -2.842973E-12 -9.322572E-11  0.000000E+00  0.000000E+00  0.000000E+00  0.000000E+00  0.000000E+00  0.000000E+00  0.000000E+00  0.000000E+00  4.230685E-01 -1.254236E-03  1.940179E-03  4.230622E-01                                                                                                                                                                                                                                                                                                                                                                                                                                                                                              
  1.475000E+03  1.250000E+02 -4.975000E+03  1.652665E-08  4.618383E-10 -5.099542E-10 -1.651232E-08  9.063224E-11  2.544095E-12 -2.808798E-12 -9.055298E-11  0.000000E+00  0.000000E+00  0.000000E+00  0.000000E+00  0.000000E+00  0.000000E+00  0.000000E+00  0.000000E+00  4.217460E-01 -2.363538E-03  1.917140E-03  4.217351E-01                                                                                                                                                                                                                                                                                                                                                                                                                                                                                              
  1.725000E+03  1.250000E+02 -4.975000E+03  1.593971E-08  4.377653E-10 -4.907338E-10 -1.592613E-08  8.742345E-11  2.411756E-12 -2.703341E-12 -8.734836E-11  0.000000E+00  0.000000E+00  0.000000E+00  0.000000E+00  0.000000E+00  0.000000E+00  0.000000E+00  0.000000E+00  4.204229E-01 -2.250287E-03  1.817289E-03  4.204130E-01                                                                                                                                                                                                                                                                                                                                                                                                                                                                                              
  1.975000E+03  1.250000E+02 -4.975000E+03  1.547263E-08  1.836008E-10 -4.656113E-10 -1.546453E-08  8.486900E-11  1.011575E-12 -2.565237E-12 -8.482419E-11  0.000000E+00  0.000000E+00  0.000000E+00  0.000000E+00  0.000000E+00  0.000000E+00  0.000000E+00  0.000000E+00  4.193488E-01 -9.468768E-04  1.679878E-03  4.193443E-01                                                                                                                                                                                                                                                                                                                                                                                                                                                                                              
  1.250000E+02  1.250000E+02 -4.725000E+03  2.129880E-08 -1.256663E-10 -3.435469E-10 -2.129566E-08  1.147476E-10 -6.764484E-13 -1.849112E-12 -1.147307E-10  0.000000E+00  0.000000E+00  0.000000E+00  0.000000E+00  0.000000E+00  0.000000E+00  0.000000E+00  0.000000E+00  5.420024E-01  1.908746E-03  3.890030E-03  5.419851E-01                                                                                                                                                                                                                                                                                                                                                                                                                                                                                              
  3.750000E+02  1.250000E+02 -4.725000E+03  2.188489E-08 -2.794896E-10 -3.854357E-10 -2.187971E-08  1.178851E-10 -1.504300E-12 -2.074170E-12 -1.178572E-10  0.000000E+00  0.000000E+00  0.000000E+00  0.000000E+00  0.000000E+00  0.000000E+00  0.000000E+00  0.000000E+00  5.440665E-01  4.389640E-03  4.441263E-03  5.440306E-01                                                                                                                                                                                                                                                                                                                                                                                                                                                                                              
  6.250000E+02  1.250000E+02 -4.725000E+03  2.256554E-08 -2.830832E-10 -4.134661E-10 -2.255998E-08  1.215278E-10 -1.523361E-12 -2.224486E-12 -1.214979E-10  0.000000E+00  0.000000E+00  0.000000E+00  0.000000E+00  0.000000E+00  0.000000E+00  0.000000E+00  0.000000E+00  5.460156E-01  4.728087E-03  4.772908E-03  5.459743E-01                                                                                                                                                                                                                                                                                                                                                                                                                                                                                              
  8.750000E+02  1.250000E+02 -4.725000E+03  2.322204E-08 -1.441266E-10 -4.235047E-10 -2.321773E-08  1.250367E-10 -7.754929E-13 -2.278035E-12 -1.250136E-10  0.000000E+00  0.000000E+00  0.000000E+00  0.000000E+00  0.000000E+00  0.000000E+00  0.000000E+00  0.000000E+00  5.490851E-01  2.724421E-03  4.810411E-03  5.490573E-01                                                                                                                                                                                                                                                                                                                                                                                                                                                                                              
  1.050000E+03  1.250000E+02 -4.725000E+03  2.324427E-08 -1.510599E-15 -4.280829E-10 -2.324033E-08  1.251547E-10 -8.127131E-18 -2.302594E-12 -1.251335E-10  0.000000E+00  0.000000E+00  0.000000E+00  0.000000E+00  0.000000E+00  0.000000E+00  0.000000E+00  0.000000E+00  5.499827E-01  3.508389E-13  4.805963E-03  5.499617E-01                                                                                                                                                                                                                                                                                                                                                                                                                                                                                              
  1.225000E+03  1.250000E+02 -4.725000E+03  2.322204E-08  1.441227E-10 -4.235062E-10 -2.321773E-08  1.250367E-10  7.754716E-13 -2.278043E-12 -1.250135E-10  0.000000E+00  0.000000E+00  0.000000E+00  0.000000E+00  0.000000E+00  0.000000E+00  0.000000E+00  0.000000E+00  5.490851E-01 -2.724426E-03  4.810411E-03  5.490573E-01                                                                                                                                                                                                                                                                                                                                                                                                                                                                                              
  1.475000E+03  1.250000E+02 -4.725000E+03  2.256553E-08  2.830814E-10 -4.134634E-10 -2.255996E-08  1.215277E-10  1.523351E-12 -2.224472E-12 -1.214978E-10  0.000000E+00  0.000000E+00  0.000000E+00  0.000000E+00  0.000000E+00  0.000000E+00  0.000000E+00  0.000000E+00  5.460157E-01 -4.728094E-03  4.772916E-03  5.459743E-01                                                                                                                                                                                                                                                                                                                                                                                                                                                                                              
  1.725000E+03  1.250000E+02 -4.725000E+03  2.188488E-08  2.794888E-10 -3.854300E-10 -2.187970E-08  1.178850E-10  1.504296E-12 -2.074139E-12 -1.178572E-10  0.000000E+00  0.000000E+00  0.000000E+00  0.000000E+00  0.000000E+00  0.000000E+00  0.000000E+00  0.000000E+00  5.440665E-01 -4.389642E-03  4.441275E-03  5.440306E-01                                                                                                                                                                                                                                                                                                                                                                                                                                                                                              