Title="TOUGHREACT V3.30-OMP flowvector.tec: Liq & Gas Fluxes (kg/s/m^2), Pore Velocities (m/s), & Heat Fluxes (J/s/m2)"                                                                                                                                                                                                                                                                                                                                                                                                                                                                                                                                                                                                                                                                                                         
Variables= "X(m)"     "Y(m)"      "Z(m)"     "FluxLiq"   "FluxLiq_X"   "FluxLiq_Y"   "FluxLiq_Z"   "PorVelLiq"  "PorVelLiqX"  "PorVelLiqY"  "PorVelLiqZ"     "FluxGas"   "FluxGas_X"   "FluxGas_Y"   "FluxGas_Z"   "PorVelGas"  "PorVelGasX"  "PorVelGasY"  "PorVelGasZ"    "HeatFlux"  "HeatFlux_X"  "HeatFlux_Y"  "HeatFlux_Z"                                                                                                                                                                                                                                                                                                                                                                                                                                                                                                
Zone T= "1.00000000E+06 sec" I=     9 J=    10 K=    23 F=Point
  1.250000E+02  1.250000E+02 -5.425000E+03  3.486714E-09 -2.683905E-10 -7.008775E-10 -3.404983E-09  1.960063E-11 -1.513358E-12 -3.951914E-12 -1.913836E-11  0.000000E+00  0.000000E+00  0.000000E+00  0.000000E+00  0.000000E+00  0.000000E+00  0.000000E+00  0.000000E+00  6.455019E-02  2.330328E-04  2.437296E-04  6.454931E-02                                                                                                                                                                                                                                                                                                                                                                                                                                                                                              
  3.750000E+02  1.250000E+02 -5.425000E+03  3.621799E-09 -6.531892E-10 -7.121815E-10 -3.490497E-09  2.036050E-11 -3.682968E-12 -4.015444E-12 -1.961790E-11  0.000000E+00  0.000000E+00  0.000000E+00  0.000000E+00  0.000000E+00  0.000000E+00  0.000000E+00  0.000000E+00  6.465229E-02  5.651188E-04  2.572864E-04  6.464931E-02                                                                                                                                                                                                                                                                                                                                                                                                                                                                                              
  6.250000E+02  1.250000E+02 -5.425000E+03  3.742166E-09 -6.831040E-10 -7.231288E-10 -3.607528E-09  2.103545E-11 -3.851436E-12 -4.076868E-12 -2.027401E-11  0.000000E+00  0.000000E+00  0.000000E+00  0.000000E+00  0.000000E+00  0.000000E+00  0.000000E+00  0.000000E+00  6.478996E-02  5.907549E-04  2.687997E-04  6.478671E-02                                                                                                                                                                                                                                                                                                                                                                                                                                                                                              
  8.750000E+02  1.250000E+02 -5.425000E+03  3.790403E-09 -3.772820E-10 -7.280563E-10 -3.700641E-09  2.130361E-11 -2.127077E-12 -4.104417E-12 -2.079599E-11  0.000000E+00  0.000000E+00  0.000000E+00  0.000000E+00  0.000000E+00  0.000000E+00  0.000000E+00  0.000000E+00  6.490092E-02  2.812431E-04  2.723497E-04  6.489974E-02                                                                                                                                                                                                                                                                                                                                                                                                                                                                                              
  1.050000E+03  1.250000E+02 -5.425000E+03  3.761520E-09  1.707006E-14 -7.285769E-10 -3.690286E-09  2.114047E-11  9.623674E-17 -4.107323E-12 -2.073763E-11  0.000000E+00  0.000000E+00  0.000000E+00  0.000000E+00  0.000000E+00  0.000000E+00  0.000000E+00  0.000000E+00  6.493442E-02  2.084194E-08  2.726727E-04  6.493384E-02                                                                                                                                                                                                                                                                                                                                                                                                                                                                                              
  1.225000E+03  1.250000E+02 -5.425000E+03  3.790393E-09  3.772995E-10 -7.280559E-10 -3.700629E-09  2.130355E-11  2.127176E-12 -4.104414E-12 -2.079592E-11  0.000000E+00  0.000000E+00  0.000000E+00  0.000000E+00  0.000000E+00  0.000000E+00  0.000000E+00  0.000000E+00  6.490092E-02 -2.812319E-04  2.723396E-04  6.489974E-02                                                                                                                                                                                                                                                                                                                                                                                                                                                                                              
  1.475000E+03  1.250000E+02 -5.425000E+03  3.742178E-09  6.831056E-10 -7.231460E-10 -3.607537E-09  2.103552E-11  3.851444E-12 -4.076965E-12 -2.027407E-11  0.000000E+00  0.000000E+00  0.000000E+00  0.000000E+00  0.000000E+00  0.000000E+00  0.000000E+00  0.000000E+00  6.478994E-02 -5.907272E-04  2.687693E-04  6.478669E-02                                                                                                                                                                                                                                                                                                                                                                                                                                                                                              
  1.725000E+03  1.250000E+02 -5.425000E+03  3.621821E-09  6.532176E-10 -7.121940E-10 -3.490512E-09  2.036062E-11  3.683128E-12 -4.015514E-12 -1.961798E-11  0.000000E+00  0.000000E+00  0.000000E+00  0.000000E+00  0.000000E+00  0.000000E+00  0.000000E+00  0.000000E+00  6.465225E-02 -5.650820E-04  2.572533E-04  6.464927E-02                                                                                                                                                                                                                                                                                                                                                                                                                                                                                              
  1.975000E+03  1.250000E+02 -5.425000E+03  3.486727E-09  2.684178E-10 -7.009084E-10 -3.404989E-09  1.960071E-11  1.513512E-12 -3.952088E-12 -1.913839E-11  0.000000E+00  0.000000E+00  0.000000E+00  0.000000E+00  0.000000E+00  0.000000E+00  0.000000E+00  0.000000E+00  6.455018E-02 -2.330333E-04  2.436886E-04  6.454930E-02                                                                                                                                                                                                                                                                                                                                                                                                                                                                                              
  1.250000E+02  1.250000E+02 -5.225000E+03  1.250412E-08 -2.087103E-10 -5.693410E-10 -1.248941E-08  6.970361E-11 -1.170301E-12 -3.192380E-12 -6.962064E-11  0.000000E+00  0.000000E+00  0.000000E+00  0.000000E+00  0.000000E+00  0.000000E+00  0.000000E+00  0.000000E+00  2.313989E-01  4.279222E-04  6.241768E-04  2.313977E-01                                                                                                                                                                                                                                                                                                                                                                                                                                                                                              
  3.750000E+02  1.250000E+02 -5.225000E+03  1.279137E-08 -5.050333E-10 -5.824732E-10 -1.276812E-08  7.130057E-11 -2.831745E-12 -3.265799E-12 -7.116942E-11  0.000000E+00  0.000000E+00  0.000000E+00  0.000000E+00  0.000000E+00  0.000000E+00  0.000000E+00  0.000000E+00  2.318405E-01  1.033283E-03  6.581968E-04  2.318373E-01                                                                                                                                                                                                                                                                                                                                                                                                                                                                                              
  6.250000E+02  1.250000E+02 -5.225000E+03  1.316742E-08 -5.269941E-10 -5.942007E-10 -1.314345E-08  7.338979E-11 -2.954682E-12 -3.331245E-12 -7.325459E-11  0.000000E+00  0.000000E+00  0.000000E+00  0.000000E+00  0.000000E+00  0.000000E+00  0.000000E+00  0.000000E+00  2.324290E-01  1.081846E-03  6.860607E-04  2.324255E-01                                                                                                                                                                                                                                                                                                                                                                                                                                                                                              
  8.750000E+02  1.250000E+02 -5.225000E+03  1.346468E-08 -2.719871E-10 -5.989253E-10 -1.344861E-08  7.504022E-11 -1.524864E-12 -3.357493E-12 -7.494956E-11  0.000000E+00  0.000000E+00  0.000000E+00  0.000000E+00  0.000000E+00  0.000000E+00  0.000000E+00  0.000000E+00  2.329313E-01  5.617836E-04  6.945383E-04  2.329296E-01                                                                                                                                                                                                                                                                                                                                                                                                                                                                                              
  1.050000E+03  1.250000E+02 -5.225000E+03  1.347845E-08  3.174137E-14 -5.994541E-10 -1.346511E-08  7.511496E-11  1.779481E-16 -3.360427E-12 -7.503976E-11  0.000000E+00  0.000000E+00  0.000000E+00  0.000000E+00  0.000000E+00  0.000000E+00  0.000000E+00  0.000000E+00  2.330180E-01  2.743287E-08  6.952270E-04  2.330170E-01                                                                                                                                                                                                                                                                                                                                                                                                                                                                                              
  1.225000E+03  1.250000E+02 -5.225000E+03  1.346468E-08  2.719988E-10 -5.989430E-10 -1.344860E-08  7.504022E-11  1.524929E-12 -3.357592E-12 -7.494955E-11  0.000000E+00  0.000000E+00  0.000000E+00  0.000000E+00  0.000000E+00  0.000000E+00  0.000000E+00  0.000000E+00  2.329313E-01 -5.617915E-04  6.945309E-04  2.329296E-01                                                                                                                                                                                                                                                                                                                                                                                                                                                                                              
  1.475000E+03  1.250000E+02 -5.225000E+03  1.316743E-08  5.269776E-10 -5.942023E-10 -1.314346E-08  7.338984E-11  2.954590E-12 -3.331254E-12 -7.325463E-11  0.000000E+00  0.000000E+00  0.000000E+00  0.000000E+00  0.000000E+00  0.000000E+00  0.000000E+00  0.000000E+00  2.324290E-01 -1.081851E-03  6.860701E-04  2.324255E-01                                                                                                                                                                                                                                                                                                                                                                                                                                                                                              
  1.725000E+03  1.250000E+02 -5.225000E+03  1.279138E-08  5.050677E-10 -5.824783E-10 -1.276813E-08  7.130064E-11  2.831938E-12 -3.265827E-12 -7.116949E-11  0.000000E+00  0.000000E+00  0.000000E+00  0.000000E+00  0.000000E+00  0.000000E+00  0.000000E+00  0.000000E+00  2.318405E-01 -1.033233E-03  6.581842E-04  2.318372E-01                                                                                                                                                                                                                                                                                                                                                                                                                                                                                              
  1.975000E+03  1.250000E+02 -5.225000E+03  1.250414E-08  2.087410E-10 -5.693739E-10 -1.248943E-08  6.970375E-11  1.170473E-12 -3.192565E-12 -6.962076E-11  0.000000E+00  0.000000E+00  0.000000E+00  0.000000E+00  0.000000E+00  0.000000E+00  0.000000E+00  0.000000E+00  2.313989E-01 -4.279023E-04  6.241550E-04  2.313976E-01                                                                                                                                                                                                                                                                                                                                                                                                                                                                                              
  1.250000E+02  1.250000E+02 -4.975000E+03  2.211341E-08 -1.752635E-10 -4.631148E-10 -2.210786E-08  1.214376E-10 -9.658593E-13 -2.552062E-12 -1.214070E-10  0.000000E+00  0.000000E+00  0.000000E+00  0.000000E+00  0.000000E+00  0.000000E+00  0.000000E+00  0.000000E+00  4.161992E-01  9.551139E-04  1.683976E-03  4.161947E-01                                                                                                                                                                                                                                                                                                                                                                                                                                                                                              
  3.750000E+02  1.250000E+02 -4.975000E+03  2.258349E-08 -4.142807E-10 -4.878617E-10 -2.257442E-08  1.240051E-10 -2.282893E-12 -2.688128E-12 -1.239549E-10  0.000000E+00  0.000000E+00  0.000000E+00  0.000000E+00  0.000000E+00  0.000000E+00  0.000000E+00  0.000000E+00  4.172805E-01  2.272740E-03  1.822100E-03  4.172703E-01                                                                                                                                                                                                                                                                                                                                                                                                                                                                                              
  6.250000E+02  1.250000E+02 -4.975000E+03  2.318499E-08 -4.292972E-10 -5.068264E-10 -2.317547E-08  1.272893E-10 -2.365377E-12 -2.792202E-12 -1.272367E-10  0.000000E+00  0.000000E+00  0.000000E+00  0.000000E+00  0.000000E+00  0.000000E+00  0.000000E+00  0.000000E+00  4.186069E-01  2.393550E-03  1.922334E-03  4.185957E-01                                                                                                                                                                                                                                                                                                                                                                                                                                                                                              
  8.750000E+02  1.250000E+02 -4.975000E+03  2.369974E-08 -2.240304E-10 -5.130012E-10 -2.369313E-08  1.300980E-10 -1.234277E-12 -2.825881E-12 -1.300615E-10  0.000000E+00  0.000000E+00  0.000000E+00  0.000000E+00  0.000000E+00  0.000000E+00  0.000000E+00  0.000000E+00  4.199210E-01  1.275210E-03  1.945413E-03  4.199146E-01                                                                                                                                                                                                                                                                                                                                                                                                                                                                                              
  1.050000E+03  1.250000E+02 -4.975000E+03  2.376290E-08  1.251840E-14 -5.138629E-10 -2.375735E-08  1.304424E-10  6.896515E-17 -2.830584E-12 -1.304117E-10  0.000000E+00  0.000000E+00  0.000000E+00  0.000000E+00  0.000000E+00  0.000000E+00  0.000000E+00  0.000000E+00  4.201339E-01 -7.886957E-10  1.946631E-03  4.201294E-01                                                                                                                                                                                                                                                                                                                                                                                                                                                                                              
  1.225000E+03  1.250000E+02 -4.975000E+03  2.369975E-08  2.240331E-10 -5.130156E-10 -2.369314E-08  1.300981E-10  1.234292E-12 -2.825960E-12 -1.300615E-10  0.000000E+00  0.000000E+00  0.000000E+00  0.000000E+00  0.000000E+00  0.000000E+00  0.000000E+00  0.000000E+00  4.199210E-01 -1.275222E-03  1.945396E-03  4.199146E-01                                                                                                                                                                                                                                                                                                                                                                                                                                                                                              
  1.475000E+03  1.250000E+02 -4.975000E+03  2.318498E-08  4.292996E-10 -5.068254E-10 -2.317547E-08  1.272893E-10  2.365390E-12 -2.792196E-12 -1.272367E-10  0.000000E+00  0.000000E+00  0.000000E+00  0.000000E+00  0.000000E+00  0.000000E+00  0.000000E+00  0.000000E+00  4.186070E-01 -2.393536E-03  1.922346E-03  4.185957E-01                                                                                                                                                                                                                                                                                                                                                                                                                                                                                              
  1.725000E+03  1.250000E+02 -4.975000E+03  2.258349E-08  4.142992E-10 -4.878703E-10 -2.257442E-08  1.240051E-10  2.282995E-12 -2.688176E-12 -1.239549E-10  0.000000E+00  0.000000E+00  0.000000E+00  0.000000E+00  0.000000E+00  0.000000E+00  0.000000E+00  0.000000E+00  4.172805E-01 -2.272719E-03  1.822081E-03  4.172703E-01                                                                                                                                                                                                                                                                                                                                                                                                                                                                                              
  1.975000E+03  1.250000E+02 -4.975000E+03  2.211344E-08  1.752699E-10 -4.631185E-10 -2.210789E-08  1.214378E-10  9.658941E-13 -2.552082E-12 -1.214071E-10  0.000000E+00  0.000000E+00  0.000000E+00  0.000000E+00  0.000000E+00  0.000000E+00  0.000000E+00  0.000000E+00  4.161992E-01 -9.551176E-04  1.683976E-03  4.161947E-01                                                                                                                                                                                                                                                                                                                                                                                                                                                                                              
  1.250000E+02  1.250000E+02 -4.725000E+03  2.732015E-08 -1.227003E-10 -3.417268E-10 -2.731774E-08  1.472410E-10 -6.605409E-13 -1.839478E-12 -1.472281E-10  0.000000E+00  0.000000E+00  0.000000E+00  0.000000E+00  0.000000E+00  0.000000E+00  0.000000E+00  0.000000E+00  5.408796E-01  1.916776E-03  3.904103E-03  5.408621E-01                                                                                                                                                                                                                                                                                                                                                                                                                                                                                              
  3.750000E+02  1.250000E+02 -4.725000E+03  2.790877E-08 -2.717275E-10 -3.831531E-10 -2.790481E-08  1.503869E-10 -1.462652E-12 -2.062067E-12 -1.503656E-10  0.000000E+00  0.000000E+00  0.000000E+00  0.000000E+00  0.000000E+00  0.000000E+00  0.000000E+00  0.000000E+00  5.429581E-01  4.408986E-03  4.457417E-03  5.429219E-01                                                                                                                                                                                                                                                                                                                                                                                                                                                                                              
  6.250000E+02  1.250000E+02 -4.725000E+03  2.859853E-08 -2.732483E-10 -4.109264E-10 -2.859427E-08  1.540721E-10 -1.470566E-12 -2.211014E-12 -1.540493E-10  0.000000E+00  0.000000E+00  0.000000E+00  0.000000E+00  0.000000E+00  0.000000E+00  0.000000E+00  0.000000E+00  5.449202E-01  4.750725E-03  4.790196E-03  5.448785E-01                                                                                                                                                                                                                                                                                                                                                                                                                                                                                              
  8.750000E+02  1.250000E+02 -4.725000E+03  2.926586E-08 -1.378401E-10 -4.209452E-10 -2.926250E-08  1.576333E-10 -7.417325E-13 -2.264462E-12 -1.576153E-10  0.000000E+00  0.000000E+00  0.000000E+00  0.000000E+00  0.000000E+00  0.000000E+00  0.000000E+00  0.000000E+00  5.480058E-01  2.738296E-03  4.827729E-03  5.479777E-01                                                                                                                                                                                                                                                                                                                                                                                                                                                                                              
  1.050000E+03  1.250000E+02 -4.725000E+03  2.929042E-08  3.583526E-15 -4.255404E-10 -2.928733E-08  1.577629E-10  1.928129E-17 -2.289115E-12 -1.577463E-10  0.000000E+00  0.000000E+00  0.000000E+00  0.000000E+00  0.000000E+00  0.000000E+00  0.000000E+00  0.000000E+00  5.489070E-01  1.811000E-09  4.823260E-03  5.488858E-01                                                                                                                                                                                                                                                                                                                                                                                                                                                                                              
  1.225000E+03  1.250000E+02 -4.725000E+03  2.926586E-08  1.378408E-10 -4.209463E-10 -2.926251E-08  1.576333E-10  7.417363E-13 -2.264468E-12 -1.576153E-10  0.000000E+00  0.000000E+00  0.000000E+00  0.000000E+00  0.000000E+00  0.000000E+00  0.000000E+00  0.000000E+00  5.480058E-01 -2.738296E-03  4.827731E-03  5.479777E-01                                                                                                                                                                                                                                                                                                                                                                                                                                                                                              
  1.475000E+03  1.250000E+02 -4.725000E+03  2.859852E-08  2.732478E-10 -4.109266E-10 -2.859427E-08  1.540721E-10  1.470563E-12 -2.211015E-12 -1.540492E-10  0.000000E+00  0.000000E+00  0.000000E+00  0.000000E+00  0.000000E+00  0.000000E+00  0.000000E+00  0.000000E+00  5.449202E-01 -4.750727E-03  4.790199E-03  5.448785E-01                                                                                                                                                                                                                                                                                                                                                                                                                                                                                              
  1.725000E+03  1.250000E+02 -4.725000E+03  2.790878E-08  2.717284E-10 -3.831531E-10 -2.790483E-08  1.503870E-10  1.462657E-12 -2.062067E-12 -1.503657E-10  0.000000E+00  0.000000E+00  0.000000E+00  0.000000E+00  0.000000E+00  0.000000E+00  0.000000E+00  0.000000E+00  5.429581E-01 -4.408992E-03  4.457421E-03  5.429219E-01                                                                                                                                                                                                                                                                                                                                                                                                                                                                                              