Title="TOUGHREACT V3.30-OMP flowvector.tec: Liq & Gas Fluxes (kg/s/m^2), Pore Velocities (m/s), & Heat Fluxes (J/s/m2)"                                                                                                                                                                                                                                                                                                                                                                                                                                                                                                                                                                                                                                                                                                         
Variables= "X(m)"     "Y(m)"      "Z(m)"     "FluxLiq"   "FluxLiq_X"   "FluxLiq_Y"   "FluxLiq_Z"   "PorVelLiq"  "PorVelLiqX"  "PorVelLiqY"  "PorVelLiqZ"     "FluxGas"   "FluxGas_X"   "FluxGas_Y"   "FluxGas_Z"   "PorVelGas"  "PorVelGasX"  "PorVelGasY"  "PorVelGasZ"    "HeatFlux"  "HeatFlux_X"  "HeatFlux_Y"  "HeatFlux_Z"                                                                                                                                                                                                                                                                                                                                                                                                                                                                                                
Zone T= "1.00000000E+10 sec" I=     9 J=    10 K=    23 F=Point
  1.250000E+02  1.250000E+02 -5.425000E+03  1.320970E-09 -2.775736E-10 -7.065812E-10 -1.081045E-09  7.422287E-12 -1.563851E-12 -3.980789E-12 -6.066139E-12  0.000000E+00  0.000000E+00  0.000000E+00  0.000000E+00  0.000000E+00  0.000000E+00  0.000000E+00  0.000000E+00  8.804418E-02  2.339704E-04  2.839087E-04  8.804341E-02                                                                                                                                                                                                                                                                                                                                                                                                                                                                                              
  3.750000E+02  1.250000E+02 -5.425000E+03  1.528460E-09 -6.802724E-10 -7.178211E-10 -1.165398E-09  8.590763E-12 -3.832520E-12 -4.043901E-12 -6.539103E-12  0.000000E+00  0.000000E+00  0.000000E+00  0.000000E+00  0.000000E+00  0.000000E+00  0.000000E+00  0.000000E+00  8.814011E-02  5.319559E-04  2.978560E-04  8.813801E-02                                                                                                                                                                                                                                                                                                                                                                                                                                                                                              
  6.250000E+02  1.250000E+02 -5.425000E+03  1.636815E-09 -7.116438E-10 -7.288496E-10 -1.281212E-09  9.197969E-12 -4.009084E-12 -4.105740E-12 -7.188378E-12  0.000000E+00  0.000000E+00  0.000000E+00  0.000000E+00  0.000000E+00  0.000000E+00  0.000000E+00  0.000000E+00  8.829840E-02  1.922352E-04  3.101846E-04  8.829764E-02                                                                                                                                                                                                                                                                                                                                                                                                                                                                                              
  8.750000E+02  1.250000E+02 -5.425000E+03  1.568996E-09 -3.167115E-10 -7.340602E-10 -1.350036E-09  8.811947E-12 -1.784170E-12 -4.135015E-12 -7.574220E-12  0.000000E+00  0.000000E+00  0.000000E+00  0.000000E+00  0.000000E+00  0.000000E+00  0.000000E+00  0.000000E+00  8.883174E-02 -2.647137E-03  3.143737E-04  8.879173E-02                                                                                                                                                                                                                                                                                                                                                                                                                                                                                              
  1.050000E+03  1.250000E+02 -5.425000E+03  1.361800E-09  1.373316E-15 -7.351230E-10 -1.146339E-09  7.650201E-12  7.737102E-18 -4.141778E-12 -6.432048E-12  0.000000E+00  0.000000E+00  0.000000E+00  0.000000E+00  0.000000E+00  0.000000E+00  0.000000E+00  0.000000E+00  9.105565E-02 -6.555171E-09  3.137917E-04  9.105511E-02                                                                                                                                                                                                                                                                                                                                                                                                                                                                                              
  1.225000E+03  1.250000E+02 -5.425000E+03  1.569007E-09  3.167144E-10 -7.340737E-10 -1.350041E-09  8.812008E-12  1.784186E-12 -4.135091E-12 -7.574245E-12  0.000000E+00  0.000000E+00  0.000000E+00  0.000000E+00  0.000000E+00  0.000000E+00  0.000000E+00  0.000000E+00  8.883174E-02  2.647131E-03  3.143574E-04  8.879173E-02                                                                                                                                                                                                                                                                                                                                                                                                                                                                                              
  1.475000E+03  1.250000E+02 -5.425000E+03  1.636814E-09  7.116380E-10 -7.288543E-10 -1.281211E-09  9.197960E-12  4.009051E-12 -4.105766E-12 -7.188370E-12  0.000000E+00  0.000000E+00  0.000000E+00  0.000000E+00  0.000000E+00  0.000000E+00  0.000000E+00  0.000000E+00  8.829841E-02 -1.922290E-04  3.101822E-04  8.829765E-02                                                                                                                                                                                                                                                                                                                                                                                                                                                                                              
  1.725000E+03  1.250000E+02 -5.425000E+03  1.528459E-09  6.802756E-10 -7.178209E-10 -1.165395E-09  8.590759E-12  3.832537E-12 -4.043900E-12 -6.539088E-12  0.000000E+00  0.000000E+00  0.000000E+00  0.000000E+00  0.000000E+00  0.000000E+00  0.000000E+00  0.000000E+00  8.814011E-02 -5.319403E-04  2.978479E-04  8.813800E-02                                                                                                                                                                                                                                                                                                                                                                                                                                                                                              
  1.975000E+03  1.250000E+02 -5.425000E+03  1.320970E-09  2.775842E-10 -7.065969E-10 -1.081032E-09  7.422290E-12  1.563910E-12 -3.980878E-12 -6.066069E-12  0.000000E+00  0.000000E+00  0.000000E+00  0.000000E+00  0.000000E+00  0.000000E+00  0.000000E+00  0.000000E+00  8.804419E-02 -2.339607E-04  2.838882E-04  8.804342E-02                                                                                                                                                                                                                                                                                                                                                                                                                                                                                              
  1.250000E+02  1.250000E+02 -5.225000E+03  6.394199E-09 -2.154981E-10 -5.636356E-10 -6.365662E-09  3.552623E-11 -1.205273E-12 -3.152306E-12 -3.536557E-11  0.000000E+00  0.000000E+00  0.000000E+00  0.000000E+00  0.000000E+00  0.000000E+00  0.000000E+00  0.000000E+00  2.550293E-01  4.270065E-04  6.618206E-04  2.550280E-01                                                                                                                                                                                                                                                                                                                                                                                                                                                                                              
  3.750000E+02  1.250000E+02 -5.225000E+03  6.681534E-09 -5.308600E-10 -5.765309E-10 -6.635412E-09  3.712357E-11 -2.968946E-12 -3.224216E-12 -3.686392E-11  0.000000E+00  0.000000E+00  0.000000E+00  0.000000E+00  0.000000E+00  0.000000E+00  0.000000E+00  0.000000E+00  2.554479E-01  1.016224E-03  6.956341E-04  2.554449E-01                                                                                                                                                                                                                                                                                                                                                                                                                                                                                              
  6.250000E+02  1.250000E+02 -5.225000E+03  7.042970E-09 -5.851777E-10 -5.881429E-10 -6.993931E-09  3.913111E-11 -3.272514E-12 -3.288858E-12 -3.885509E-11  0.000000E+00  0.000000E+00  0.000000E+00  0.000000E+00  0.000000E+00  0.000000E+00  0.000000E+00  0.000000E+00  2.560439E-01  9.673396E-04  7.239824E-04  2.560410E-01                                                                                                                                                                                                                                                                                                                                                                                                                                                                                              
  8.750000E+02  1.250000E+02 -5.225000E+03  7.273078E-09 -3.500964E-10 -5.929294E-10 -7.240410E-09  4.040670E-11 -1.957766E-12 -3.315412E-12 -4.022283E-11  0.000000E+00  0.000000E+00  0.000000E+00  0.000000E+00  0.000000E+00  0.000000E+00  0.000000E+00  0.000000E+00  2.569886E-01  1.673514E-04  7.332223E-04  2.569875E-01                                                                                                                                                                                                                                                                                                                                                                                                                                                                                              
  1.050000E+03  1.250000E+02 -5.225000E+03  7.043908E-09 -5.115917E-15 -5.934790E-10 -7.018862E-09  3.912267E-11 -2.860795E-17 -3.318518E-12 -3.898168E-11  0.000000E+00  0.000000E+00  0.000000E+00  0.000000E+00  0.000000E+00  0.000000E+00  0.000000E+00  0.000000E+00  2.595076E-01 -7.412818E-09  7.339723E-04  2.595065E-01                                                                                                                                                                                                                                                                                                                                                                                                                                                                                              
  1.225000E+03  1.250000E+02 -5.225000E+03  7.273088E-09  3.500975E-10 -5.929392E-10 -7.240419E-09  4.040675E-11  1.957772E-12 -3.315467E-12 -4.022288E-11  0.000000E+00  0.000000E+00  0.000000E+00  0.000000E+00  0.000000E+00  0.000000E+00  0.000000E+00  0.000000E+00  2.569886E-01 -1.673532E-04  7.332013E-04  2.569875E-01                                                                                                                                                                                                                                                                                                                                                                                                                                                                                              
  1.475000E+03  1.250000E+02 -5.225000E+03  7.042982E-09  5.851791E-10 -5.881468E-10 -6.993944E-09  3.913118E-11  3.272521E-12 -3.288879E-12 -3.885516E-11  0.000000E+00  0.000000E+00  0.000000E+00  0.000000E+00  0.000000E+00  0.000000E+00  0.000000E+00  0.000000E+00  2.560439E-01 -9.673375E-04  7.239712E-04  2.560410E-01                                                                                                                                                                                                                                                                                                                                                                                                                                                                                              
  1.725000E+03  1.250000E+02 -5.225000E+03  6.681542E-09  5.308742E-10 -5.765349E-10 -6.635419E-09  3.712361E-11  2.969025E-12 -3.224238E-12 -3.686396E-11  0.000000E+00  0.000000E+00  0.000000E+00  0.000000E+00  0.000000E+00  0.000000E+00  0.000000E+00  0.000000E+00  2.554479E-01 -1.016205E-03  6.956270E-04  2.554449E-01                                                                                                                                                                                                                                                                                                                                                                                                                                                                                              
  1.975000E+03  1.250000E+02 -5.225000E+03  6.394202E-09  2.155172E-10 -5.636554E-10 -6.365663E-09  3.552625E-11  1.205379E-12 -3.152417E-12 -3.536557E-11  0.000000E+00  0.000000E+00  0.000000E+00  0.000000E+00  0.000000E+00  0.000000E+00  0.000000E+00  0.000000E+00  2.550292E-01 -4.269844E-04  6.617874E-04  2.550280E-01                                                                                                                                                                                                                                                                                                                                                                                                                                                                                              
  1.250000E+02  1.250000E+02 -4.975000E+03  1.430372E-08 -1.782203E-10 -4.531193E-10 -1.429543E-08  7.834673E-11 -9.801427E-13 -2.491870E-12 -7.830096E-11  0.000000E+00  0.000000E+00  0.000000E+00  0.000000E+00  0.000000E+00  0.000000E+00  0.000000E+00  0.000000E+00  4.081764E-01  9.334895E-04  1.668420E-03  4.081719E-01                                                                                                                                                                                                                                                                                                                                                                                                                                                                                              
  3.750000E+02  1.250000E+02 -4.975000E+03  1.475692E-08 -4.264792E-10 -4.775108E-10 -1.474303E-08  8.082223E-11 -2.345304E-12 -2.625719E-12 -8.074551E-11  0.000000E+00  0.000000E+00  0.000000E+00  0.000000E+00  0.000000E+00  0.000000E+00  0.000000E+00  0.000000E+00  4.092058E-01  2.216469E-03  1.802725E-03  4.091958E-01                                                                                                                                                                                                                                                                                                                                                                                                                                                                                              
  6.250000E+02  1.250000E+02 -4.975000E+03  1.532505E-08 -4.556885E-10 -4.962413E-10 -1.531023E-08  8.392440E-11 -2.505659E-12 -2.728313E-12 -8.384260E-11  0.000000E+00  0.000000E+00  0.000000E+00  0.000000E+00  0.000000E+00  0.000000E+00  0.000000E+00  0.000000E+00  4.104759E-01  2.314442E-03  1.900954E-03  4.104650E-01                                                                                                                                                                                                                                                                                                                                                                                                                                                                                              
  8.750000E+02  1.250000E+02 -4.975000E+03  1.578040E-08 -2.508313E-10 -5.024163E-10 -1.577040E-08  8.640736E-11 -1.379115E-12 -2.761944E-12 -8.635220E-11  0.000000E+00  0.000000E+00  0.000000E+00  0.000000E+00  0.000000E+00  0.000000E+00  0.000000E+00  0.000000E+00  4.118183E-01  1.200083E-03  1.924287E-03  4.118121E-01                                                                                                                                                                                                                                                                                                                                                                                                                                                                                              
  1.050000E+03  1.250000E+02 -4.975000E+03  1.579026E-08 -1.176161E-14 -5.032547E-10 -1.578224E-08  8.645771E-11 -6.466388E-17 -2.766515E-12 -8.641344E-11  0.000000E+00  0.000000E+00  0.000000E+00  0.000000E+00  0.000000E+00  0.000000E+00  0.000000E+00  0.000000E+00  4.122424E-01 -1.452987E-08  1.925603E-03  4.122379E-01                                                                                                                                                                                                                                                                                                                                                                                                                                                                                              
  1.225000E+03  1.250000E+02 -4.975000E+03  1.578039E-08  2.508151E-10 -5.024087E-10 -1.577040E-08  8.640734E-11  1.379026E-12 -2.761903E-12 -8.635218E-11  0.000000E+00  0.000000E+00  0.000000E+00  0.000000E+00  0.000000E+00  0.000000E+00  0.000000E+00  0.000000E+00  4.118183E-01 -1.200107E-03  1.924299E-03  4.118121E-01                                                                                                                                                                                                                                                                                                                                                                                                                                                                                              
  1.475000E+03  1.250000E+02 -4.975000E+03  1.532505E-08  4.556851E-10 -4.962346E-10 -1.531023E-08  8.392440E-11  2.505640E-12 -2.728277E-12 -8.384261E-11  0.000000E+00  0.000000E+00  0.000000E+00  0.000000E+00  0.000000E+00  0.000000E+00  0.000000E+00  0.000000E+00  4.104759E-01 -2.314439E-03  1.900964E-03  4.104650E-01                                                                                                                                                                                                                                                                                                                                                                                                                                                                                              
  1.725000E+03  1.250000E+02 -4.975000E+03  1.475692E-08  4.264937E-10 -4.775072E-10 -1.474303E-08  8.082224E-11  2.345384E-12 -2.625699E-12 -8.074552E-11  0.000000E+00  0.000000E+00  0.000000E+00  0.000000E+00  0.000000E+00  0.000000E+00  0.000000E+00  0.000000E+00  4.092058E-01 -2.216453E-03  1.802733E-03  4.091958E-01                                                                                                                                                                                                                                                                                                                                                                                                                                                                                              
  1.975000E+03  1.250000E+02 -4.975000E+03  1.430373E-08  1.782338E-10 -4.531195E-10 -1.429544E-08  7.834682E-11  9.802167E-13 -2.491871E-12 -7.830105E-11  0.000000E+00  0.000000E+00  0.000000E+00  0.000000E+00  0.000000E+00  0.000000E+00  0.000000E+00  0.000000E+00  4.081764E-01 -9.334865E-04  1.668438E-03  4.081719E-01                                                                                                                                                                                                                                                                                                                                                                                                                                                                                              
  1.250000E+02  1.250000E+02 -4.725000E+03  1.942792E-08 -1.222878E-10 -3.334683E-10 -1.942468E-08  1.045867E-10 -6.577711E-13 -1.793531E-12 -1.045693E-10  0.000000E+00  0.000000E+00  0.000000E+00  0.000000E+00  0.000000E+00  0.000000E+00  0.000000E+00  0.000000E+00  5.204881E-01  1.856929E-03  3.785109E-03  5.204710E-01                                                                                                                                                                                                                                                                                                                                                                                                                                                                                              
  3.750000E+02  1.250000E+02 -4.725000E+03  1.999408E-08 -2.723372E-10 -3.743756E-10 -1.998872E-08  1.076167E-10 -1.464715E-12 -2.013167E-12 -1.075879E-10  0.000000E+00  0.000000E+00  0.000000E+00  0.000000E+00  0.000000E+00  0.000000E+00  0.000000E+00  0.000000E+00  5.224791E-01  4.268082E-03  4.321462E-03  5.224438E-01                                                                                                                                                                                                                                                                                                                                                                                                                                                                                              
  6.250000E+02  1.250000E+02 -4.725000E+03  2.064833E-08 -2.770124E-10 -4.018128E-10 -2.064256E-08  1.111172E-10 -1.489594E-12 -2.160215E-12 -1.110863E-10  0.000000E+00  0.000000E+00  0.000000E+00  0.000000E+00  0.000000E+00  0.000000E+00  0.000000E+00  0.000000E+00  5.243505E-01  4.589458E-03  4.645039E-03  5.243098E-01                                                                                                                                                                                                                                                                                                                                                                                                                                                                                              
  8.750000E+02  1.250000E+02 -4.725000E+03  2.127303E-08 -1.421344E-10 -4.116913E-10 -2.126857E-08  1.144553E-10 -7.642134E-13 -2.212893E-12 -1.144313E-10  0.000000E+00  0.000000E+00  0.000000E+00  0.000000E+00  0.000000E+00  0.000000E+00  0.000000E+00  0.000000E+00  5.273170E-01  2.639232E-03  4.682571E-03  5.272896E-01                                                                                                                                                                                                                                                                                                                                                                                                                                                                                              
  1.050000E+03  1.250000E+02 -4.725000E+03  2.128875E-08  6.801281E-16 -4.161464E-10 -2.128468E-08  1.145383E-10  3.656467E-18 -2.236777E-12 -1.145165E-10  0.000000E+00  0.000000E+00  0.000000E+00  0.000000E+00  0.000000E+00  0.000000E+00  0.000000E+00  0.000000E+00  5.281997E-01  2.476789E-09  4.678332E-03  5.281790E-01                                                                                                                                                                                                                                                                                                                                                                                                                                                                                              
  1.225000E+03  1.250000E+02 -4.725000E+03  2.127302E-08  1.421352E-10 -4.116923E-10 -2.126857E-08  1.144552E-10  7.642177E-13 -2.212898E-12 -1.144313E-10  0.000000E+00  0.000000E+00  0.000000E+00  0.000000E+00  0.000000E+00  0.000000E+00  0.000000E+00  0.000000E+00  5.273170E-01 -2.639235E-03  4.682571E-03  5.272896E-01                                                                                                                                                                                                                                                                                                                                                                                                                                                                                              
  1.475000E+03  1.250000E+02 -4.725000E+03  2.064832E-08  2.770104E-10 -4.018168E-10 -2.064255E-08  1.111172E-10  1.489583E-12 -2.160237E-12 -1.110862E-10  0.000000E+00  0.000000E+00  0.000000E+00  0.000000E+00  0.000000E+00  0.000000E+00  0.000000E+00  0.000000E+00  5.243505E-01 -4.589465E-03  4.645039E-03  5.243098E-01                                                                                                                                                                                                                                                                                                                                                                                                                                                                                              
  1.725000E+03  1.250000E+02 -4.725000E+03  1.999407E-08  2.723359E-10 -3.743730E-10 -1.998871E-08  1.076166E-10  1.464708E-12 -2.013154E-12 -1.075878E-10  0.000000E+00  0.000000E+00  0.000000E+00  0.000000E+00  0.000000E+00  0.000000E+00  0.000000E+00  0.000000E+00  5.224792E-01 -4.268080E-03  4.321463E-03  5.224438E-01                                                                                                                                                                                                                                                                                                                                                                                                                                                                                              