Title="TOUGHREACT V3.30-OMP flowvector.tec: Liq & Gas Fluxes (kg/s/m^2), Pore Velocities (m/s), & Heat Fluxes (J/s/m2)"                                                                                                                                                                                                                                                                                                                                                                                                                                                                                                                                                                                                                                                                                                         
Variables= "X(m)"     "Y(m)"      "Z(m)"     "FluxLiq"   "FluxLiq_X"   "FluxLiq_Y"   "FluxLiq_Z"   "PorVelLiq"  "PorVelLiqX"  "PorVelLiqY"  "PorVelLiqZ"     "FluxGas"   "FluxGas_X"   "FluxGas_Y"   "FluxGas_Z"   "PorVelGas"  "PorVelGasX"  "PorVelGasY"  "PorVelGasZ"    "HeatFlux"  "HeatFlux_X"  "HeatFlux_Y"  "HeatFlux_Z"                                                                                                                                                                                                                                                                                                                                                                                                                                                                                                
Zone T= "3.15569000E+08 sec" I=     9 J=    10 K=    23 F=Point
  1.250000E+02  1.250000E+02 -5.425000E+03  7.680320E-10 -2.829916E-10 -7.013851E-10 -1.335960E-10  4.330037E-12 -1.595643E-12 -3.954663E-12 -7.508547E-13  0.000000E+00  0.000000E+00  0.000000E+00  0.000000E+00  0.000000E+00  0.000000E+00  0.000000E+00  0.000000E+00  6.840184E-02  2.206669E-04  2.448019E-04  6.840104E-02                                                                                                                                                                                                                                                                                                                                                                                                                                                                                              
  3.750000E+02  1.250000E+02 -5.425000E+03  1.024436E-09 -7.032326E-10 -7.127413E-10 -2.166401E-10  5.775116E-12 -3.965019E-12 -4.018485E-12 -1.217521E-12  0.000000E+00  0.000000E+00  0.000000E+00  0.000000E+00  0.000000E+00  0.000000E+00  0.000000E+00  0.000000E+00  6.850452E-02  5.223315E-04  2.583279E-04  6.850204E-02                                                                                                                                                                                                                                                                                                                                                                                                                                                                                              
  6.250000E+02  1.250000E+02 -5.425000E+03  1.122771E-09 -7.952905E-10 -7.237406E-10 -3.229989E-10  6.328295E-12 -4.483820E-12 -4.080201E-12 -1.815112E-12  0.000000E+00  0.000000E+00  0.000000E+00  0.000000E+00  0.000000E+00  0.000000E+00  0.000000E+00  0.000000E+00  6.864925E-02  4.924101E-04  2.698296E-04  6.864696E-02                                                                                                                                                                                                                                                                                                                                                                                                                                                                                              
  8.750000E+02  1.250000E+02 -5.425000E+03  1.017992E-09 -6.056571E-10 -7.286905E-10 -3.721532E-10  5.736442E-12 -3.414527E-12 -4.107874E-12 -2.091206E-12  0.000000E+00  0.000000E+00  0.000000E+00  0.000000E+00  0.000000E+00  0.000000E+00  0.000000E+00  0.000000E+00  6.879836E-02 -1.669893E-04  2.733968E-04  6.879761E-02                                                                                                                                                                                                                                                                                                                                                                                                                                                                                              
  1.050000E+03  1.250000E+02 -5.425000E+03  7.658423E-10 -4.533763E-15 -7.292720E-10 -2.338309E-10  4.316062E-12 -2.555999E-17 -4.111197E-12 -1.313946E-12  0.000000E+00  0.000000E+00  0.000000E+00  0.000000E+00  0.000000E+00  0.000000E+00  0.000000E+00  0.000000E+00  6.915638E-02  1.194253E-09  2.736192E-04  6.915584E-02                                                                                                                                                                                                                                                                                                                                                                                                                                                                                              
  1.225000E+03  1.250000E+02 -5.425000E+03  1.017999E-09  6.056585E-10 -7.286909E-10 -3.721694E-10  5.736481E-12  3.414535E-12 -4.107876E-12 -2.091297E-12  0.000000E+00  0.000000E+00  0.000000E+00  0.000000E+00  0.000000E+00  0.000000E+00  0.000000E+00  0.000000E+00  6.879834E-02  1.669867E-04  2.733873E-04  6.879759E-02                                                                                                                                                                                                                                                                                                                                                                                                                                                                                              
  1.475000E+03  1.250000E+02 -5.425000E+03  1.122775E-09  7.952891E-10 -7.237419E-10 -3.230118E-10  6.328315E-12  4.483812E-12 -4.080208E-12 -1.815185E-12  0.000000E+00  0.000000E+00  0.000000E+00  0.000000E+00  0.000000E+00  0.000000E+00  0.000000E+00  0.000000E+00  6.864923E-02 -4.923852E-04  2.698132E-04  6.864693E-02                                                                                                                                                                                                                                                                                                                                                                                                                                                                                              
  1.725000E+03  1.250000E+02 -5.425000E+03  1.024431E-09  7.032254E-10 -7.127380E-10 -2.166519E-10  5.775089E-12  3.964979E-12 -4.018467E-12 -1.217587E-12  0.000000E+00  0.000000E+00  0.000000E+00  0.000000E+00  0.000000E+00  0.000000E+00  0.000000E+00  0.000000E+00  6.850448E-02 -5.223267E-04  2.583094E-04  6.850200E-02                                                                                                                                                                                                                                                                                                                                                                                                                                                                                              
  1.975000E+03  1.250000E+02 -5.425000E+03  7.680295E-10  2.829917E-10 -7.013827E-10 -1.335941E-10  4.330023E-12  1.595644E-12 -3.954650E-12 -7.508440E-13  0.000000E+00  0.000000E+00  0.000000E+00  0.000000E+00  0.000000E+00  0.000000E+00  0.000000E+00  0.000000E+00  6.840183E-02 -2.206907E-04  2.447910E-04  6.840104E-02                                                                                                                                                                                                                                                                                                                                                                                                                                                                                              
  1.250000E+02  1.250000E+02 -5.225000E+03  6.775195E-09 -2.203469E-10 -5.695437E-10 -6.747617E-09  3.765783E-11 -1.235417E-12 -3.193173E-12 -3.750186E-11  0.000000E+00  0.000000E+00  0.000000E+00  0.000000E+00  0.000000E+00  0.000000E+00  0.000000E+00  0.000000E+00  2.369940E-01  4.182713E-04  6.252018E-04  2.369928E-01                                                                                                                                                                                                                                                                                                                                                                                                                                                                                              
  3.750000E+02  1.250000E+02 -5.225000E+03  7.065443E-09 -5.418665E-10 -5.827435E-10 -7.020490E-09  3.927433E-11 -3.037941E-12 -3.266962E-12 -3.902013E-11  0.000000E+00  0.000000E+00  0.000000E+00  0.000000E+00  0.000000E+00  0.000000E+00  0.000000E+00  0.000000E+00  2.374372E-01  1.002566E-03  6.591558E-04  2.374342E-01                                                                                                                                                                                                                                                                                                                                                                                                                                                                                              
  6.250000E+02  1.250000E+02 -5.225000E+03  7.422949E-09 -5.915503E-10 -5.945387E-10 -7.375416E-09  4.126291E-11 -3.316264E-12 -3.332781E-12 -4.099418E-11  0.000000E+00  0.000000E+00  0.000000E+00  0.000000E+00  0.000000E+00  0.000000E+00  0.000000E+00  0.000000E+00  2.380380E-01  1.027531E-03  6.869811E-04  2.380348E-01                                                                                                                                                                                                                                                                                                                                                                                                                                                                                              
  8.750000E+02  1.250000E+02 -5.225000E+03  7.647243E-09 -3.421615E-10 -5.992919E-10 -7.616042E-09  4.250657E-11 -1.918076E-12 -3.359185E-12 -4.233019E-11  0.000000E+00  0.000000E+00  0.000000E+00  0.000000E+00  0.000000E+00  0.000000E+00  0.000000E+00  0.000000E+00  2.385919E-01  5.008998E-04  6.954708E-04  2.385904E-01                                                                                                                                                                                                                                                                                                                                                                                                                                                                                              
  1.050000E+03  1.250000E+02 -5.225000E+03  7.512046E-09 -2.235134E-14 -5.997970E-10 -7.488062E-09  4.174550E-11 -1.252923E-16 -3.361986E-12 -4.160990E-11  0.000000E+00  0.000000E+00  0.000000E+00  0.000000E+00  0.000000E+00  0.000000E+00  0.000000E+00  0.000000E+00  2.390165E-01 -1.853297E-08  6.961850E-04  2.390154E-01                                                                                                                                                                                                                                                                                                                                                                                                                                                                                              
  1.225000E+03  1.250000E+02 -5.225000E+03  7.647245E-09  3.421447E-10 -5.992931E-10 -7.616045E-09  4.250658E-11  1.917982E-12 -3.359192E-12 -4.233021E-11  0.000000E+00  0.000000E+00  0.000000E+00  0.000000E+00  0.000000E+00  0.000000E+00  0.000000E+00  0.000000E+00  2.385919E-01 -5.009305E-04  6.954745E-04  2.385904E-01                                                                                                                                                                                                                                                                                                                                                                                                                                                                                              
  1.475000E+03  1.250000E+02 -5.225000E+03  7.422949E-09  5.915566E-10 -5.945194E-10 -7.375417E-09  4.126291E-11  3.316299E-12 -3.332672E-12 -4.099419E-11  0.000000E+00  0.000000E+00  0.000000E+00  0.000000E+00  0.000000E+00  0.000000E+00  0.000000E+00  0.000000E+00  2.380380E-01 -1.027517E-03  6.870088E-04  2.380348E-01                                                                                                                                                                                                                                                                                                                                                                                                                                                                                              
  1.725000E+03  1.250000E+02 -5.225000E+03  7.065433E-09  5.418748E-10 -5.827232E-10 -7.020480E-09  3.927427E-11  3.037987E-12 -3.266848E-12 -3.902008E-11  0.000000E+00  0.000000E+00  0.000000E+00  0.000000E+00  0.000000E+00  0.000000E+00  0.000000E+00  0.000000E+00  2.374372E-01 -1.002541E-03  6.591648E-04  2.374341E-01                                                                                                                                                                                                                                                                                                                                                                                                                                                                                              
  1.975000E+03  1.250000E+02 -5.225000E+03  6.775186E-09  2.203543E-10 -5.695401E-10 -6.747608E-09  3.765778E-11  1.235459E-12 -3.193152E-12 -3.750181E-11  0.000000E+00  0.000000E+00  0.000000E+00  0.000000E+00  0.000000E+00  0.000000E+00  0.000000E+00  0.000000E+00  2.369940E-01 -4.182726E-04  6.252104E-04  2.369928E-01                                                                                                                                                                                                                                                                                                                                                                                                                                                                                              
  1.250000E+02  1.250000E+02 -4.975000E+03  1.793143E-08 -1.816297E-10 -4.634537E-10 -1.792452E-08  9.838240E-11 -1.000869E-12 -2.553740E-12 -9.834416E-11  0.000000E+00  0.000000E+00  0.000000E+00  0.000000E+00  0.000000E+00  0.000000E+00  0.000000E+00  0.000000E+00  4.187288E-01  9.496150E-04  1.683040E-03  4.187243E-01                                                                                                                                                                                                                                                                                                                                                                                                                                                                                              
  3.750000E+02  1.250000E+02 -4.975000E+03  1.839727E-08 -4.328077E-10 -4.883440E-10 -1.838569E-08  1.009288E-10 -2.384808E-12 -2.690587E-12 -1.008647E-10  0.000000E+00  0.000000E+00  0.000000E+00  0.000000E+00  0.000000E+00  0.000000E+00  0.000000E+00  0.000000E+00  4.198093E-01  2.257043E-03  1.820928E-03  4.197993E-01                                                                                                                                                                                                                                                                                                                                                                                                                                                                                              
  6.250000E+02  1.250000E+02 -4.975000E+03  1.898413E-08 -4.561493E-10 -5.074114E-10 -1.897187E-08  1.041354E-10 -2.513141E-12 -2.795218E-12 -1.040676E-10  0.000000E+00  0.000000E+00  0.000000E+00  0.000000E+00  0.000000E+00  0.000000E+00  0.000000E+00  0.000000E+00  4.211405E-01  2.371233E-03  1.921015E-03  4.211295E-01                                                                                                                                                                                                                                                                                                                                                                                                                                                                                              
  8.750000E+02  1.250000E+02 -4.975000E+03  1.947006E-08 -2.435853E-10 -5.136057E-10 -1.946176E-08  1.067874E-10 -1.341913E-12 -2.829002E-12 -1.067415E-10  0.000000E+00  0.000000E+00  0.000000E+00  0.000000E+00  0.000000E+00  0.000000E+00  0.000000E+00  0.000000E+00  4.224699E-01  1.259178E-03  1.944095E-03  4.224636E-01                                                                                                                                                                                                                                                                                                                                                                                                                                                                                              
  1.050000E+03  1.250000E+02 -4.975000E+03  1.951419E-08 -2.847416E-15 -5.144604E-10 -1.950741E-08  1.070267E-10 -1.568547E-17 -2.833667E-12 -1.069892E-10  0.000000E+00  0.000000E+00  0.000000E+00  0.000000E+00  0.000000E+00  0.000000E+00  0.000000E+00  0.000000E+00  4.226973E-01 -1.110321E-08  1.945317E-03  4.226928E-01                                                                                                                                                                                                                                                                                                                                                                                                                                                                                              
  1.225000E+03  1.250000E+02 -4.975000E+03  1.947004E-08  2.435834E-10 -5.135972E-10 -1.946174E-08  1.067873E-10  1.341903E-12 -2.828956E-12 -1.067414E-10  0.000000E+00  0.000000E+00  0.000000E+00  0.000000E+00  0.000000E+00  0.000000E+00  0.000000E+00  0.000000E+00  4.224699E-01 -1.259193E-03  1.944097E-03  4.224636E-01                                                                                                                                                                                                                                                                                                                                                                                                                                                                                              
  1.475000E+03  1.250000E+02 -4.975000E+03  1.898412E-08  4.561660E-10 -5.074030E-10 -1.897185E-08  1.041353E-10  2.513233E-12 -2.795172E-12 -1.040675E-10  0.000000E+00  0.000000E+00  0.000000E+00  0.000000E+00  0.000000E+00  0.000000E+00  0.000000E+00  0.000000E+00  4.211406E-01 -2.371208E-03  1.921034E-03  4.211295E-01                                                                                                                                                                                                                                                                                                                                                                                                                                                                                              
  1.725000E+03  1.250000E+02 -4.975000E+03  1.839727E-08  4.328138E-10 -4.883480E-10 -1.838569E-08  1.009288E-10  2.384842E-12 -2.690609E-12 -1.008647E-10  0.000000E+00  0.000000E+00  0.000000E+00  0.000000E+00  0.000000E+00  0.000000E+00  0.000000E+00  0.000000E+00  4.198093E-01 -2.257032E-03  1.820916E-03  4.197993E-01                                                                                                                                                                                                                                                                                                                                                                                                                                                                                              
  1.975000E+03  1.250000E+02 -4.975000E+03  1.793143E-08  1.816201E-10 -4.634452E-10 -1.792452E-08  9.838240E-11  1.000815E-12 -2.553694E-12 -9.834416E-11  0.000000E+00  0.000000E+00  0.000000E+00  0.000000E+00  0.000000E+00  0.000000E+00  0.000000E+00  0.000000E+00  4.187288E-01 -9.496328E-04  1.683053E-03  4.187243E-01                                                                                                                                                                                                                                                                                                                                                                                                                                                                                              
  1.250000E+02  1.250000E+02 -4.725000E+03  2.429420E-08 -1.246256E-10 -3.421305E-10 -2.429147E-08  1.308999E-10 -6.708870E-13 -1.841600E-12 -1.308852E-10  0.000000E+00  0.000000E+00  0.000000E+00  0.000000E+00  0.000000E+00  0.000000E+00  0.000000E+00  0.000000E+00  5.419480E-01  1.913591E-03  3.899785E-03  5.419306E-01                                                                                                                                                                                                                                                                                                                                                                                                                                                                                              
  3.750000E+02  1.250000E+02 -4.725000E+03  2.487985E-08 -2.770253E-10 -3.837465E-10 -2.487535E-08  1.340324E-10 -1.491127E-12 -2.065204E-12 -1.340081E-10  0.000000E+00  0.000000E+00  0.000000E+00  0.000000E+00  0.000000E+00  0.000000E+00  0.000000E+00  0.000000E+00  5.440222E-01  4.400999E-03  4.452417E-03  5.439862E-01                                                                                                                                                                                                                                                                                                                                                                                                                                                                                              
  6.250000E+02  1.250000E+02 -4.725000E+03  2.556108E-08 -2.803146E-10 -4.116171E-10 -2.555623E-08  1.376749E-10 -1.508553E-12 -2.214671E-12 -1.376488E-10  0.000000E+00  0.000000E+00  0.000000E+00  0.000000E+00  0.000000E+00  0.000000E+00  0.000000E+00  0.000000E+00  5.459824E-01  4.740959E-03  4.784830E-03  5.459408E-01                                                                                                                                                                                                                                                                                                                                                                                                                                                                                              
  8.750000E+02  1.250000E+02 -4.725000E+03  2.621759E-08 -1.424202E-10 -4.216390E-10 -2.621381E-08  1.411807E-10 -7.663573E-13 -2.268134E-12 -1.411604E-10  0.000000E+00  0.000000E+00  0.000000E+00  0.000000E+00  0.000000E+00  0.000000E+00  0.000000E+00  0.000000E+00  5.490662E-01  2.732202E-03  4.822354E-03  5.490382E-01                                                                                                                                                                                                                                                                                                                                                                                                                                                                                              
  1.050000E+03  1.250000E+02 -4.725000E+03  2.623974E-08  2.297693E-15 -4.262297E-10 -2.623628E-08  1.412978E-10  1.236249E-17 -2.292761E-12 -1.412792E-10  0.000000E+00  0.000000E+00  0.000000E+00  0.000000E+00  0.000000E+00  0.000000E+00  0.000000E+00  0.000000E+00  5.499670E-01  1.739894E-09  4.817890E-03  5.499459E-01                                                                                                                                                                                                                                                                                                                                                                                                                                                                                              
  1.225000E+03  1.250000E+02 -4.725000E+03  2.621759E-08  1.424203E-10 -4.216378E-10 -2.621381E-08  1.411807E-10  7.663579E-13 -2.268127E-12 -1.411604E-10  0.000000E+00  0.000000E+00  0.000000E+00  0.000000E+00  0.000000E+00  0.000000E+00  0.000000E+00  0.000000E+00  5.490662E-01 -2.732203E-03  4.822358E-03  5.490382E-01                                                                                                                                                                                                                                                                                                                                                                                                                                                                                              
  1.475000E+03  1.250000E+02 -4.725000E+03  2.556108E-08  2.803046E-10 -4.116186E-10 -2.555622E-08  1.376749E-10  1.508499E-12 -2.214678E-12 -1.376488E-10  0.000000E+00  0.000000E+00  0.000000E+00  0.000000E+00  0.000000E+00  0.000000E+00  0.000000E+00  0.000000E+00  5.459824E-01 -4.740970E-03  4.784833E-03  5.459409E-01                                                                                                                                                                                                                                                                                                                                                                                                                                                                                              
  1.725000E+03  1.250000E+02 -4.725000E+03  2.487985E-08  2.770220E-10 -3.837407E-10 -2.487535E-08  1.340324E-10  1.491110E-12 -2.065173E-12 -1.340082E-10  0.000000E+00  0.000000E+00  0.000000E+00  0.000000E+00  0.000000E+00  0.000000E+00  0.000000E+00  0.000000E+00  5.440222E-01 -4.401005E-03  4.452427E-03  5.439862E-01                                                                                                                                                                                                                                                                                                                                                                                                                                                                                              