Title="TOUGHREACT V3.30-OMP flowvector.tec: Liq & Gas Fluxes (kg/s/m^2), Pore Velocities (m/s), & Heat Fluxes (J/s/m2)"                                                                                                                                                                                                                                                                                                                                                                                                                                                                                                                                                                                                                                                                                                         
Variables= "X(m)"     "Y(m)"      "Z(m)"     "FluxLiq"   "FluxLiq_X"   "FluxLiq_Y"   "FluxLiq_Z"   "PorVelLiq"  "PorVelLiqX"  "PorVelLiqY"  "PorVelLiqZ"     "FluxGas"   "FluxGas_X"   "FluxGas_Y"   "FluxGas_Z"   "PorVelGas"  "PorVelGasX"  "PorVelGasY"  "PorVelGasZ"    "HeatFlux"  "HeatFlux_X"  "HeatFlux_Y"  "HeatFlux_Z"                                                                                                                                                                                                                                                                                                                                                                                                                                                                                                
Zone T= "1.00000000E+11 sec" I=     9 J=    10 K=    23 F=Point
  1.250000E+02  1.250000E+02 -5.425000E+03  1.714539E-09 -1.649699E-10 -6.294324E-10 -1.586268E-09  9.481047E-12 -9.152849E-13 -3.492085E-12 -8.766861E-12  0.000000E+00  0.000000E+00  0.000000E+00  0.000000E+00  0.000000E+00  0.000000E+00  0.000000E+00  0.000000E+00  9.237733E-02  1.351585E-04  5.030569E-04  9.237586E-02                                                                                                                                                                                                                                                                                                                                                                                                                                                                                              
  3.750000E+02  1.250000E+02 -5.425000E+03  1.808178E-09 -3.757143E-10 -6.386230E-10 -1.649396E-09  9.999471E-12 -2.084509E-12 -3.542976E-12 -9.115458E-12  0.000000E+00  0.000000E+00  0.000000E+00  0.000000E+00  0.000000E+00  0.000000E+00  0.000000E+00  0.000000E+00  9.248917E-02  1.412297E-04  5.168708E-04  9.248762E-02                                                                                                                                                                                                                                                                                                                                                                                                                                                                                              
  6.250000E+02  1.250000E+02 -5.425000E+03  1.873607E-09 -3.184808E-10 -6.483479E-10 -1.728762E-09  1.036024E-11 -1.766965E-12 -3.596860E-12 -9.553794E-12  0.000000E+00  0.000000E+00  0.000000E+00  0.000000E+00  0.000000E+00  0.000000E+00  0.000000E+00  0.000000E+00  9.276023E-02 -6.739793E-04  5.303795E-04  9.275627E-02                                                                                                                                                                                                                                                                                                                                                                                                                                                                                              
  8.750000E+02  1.250000E+02 -5.425000E+03  1.867056E-09 -7.155001E-11 -6.537226E-10 -1.747405E-09  1.032333E-11 -3.969458E-13 -3.626886E-12 -9.657082E-12  0.000000E+00  0.000000E+00  0.000000E+00  0.000000E+00  0.000000E+00  0.000000E+00  0.000000E+00  0.000000E+00  9.362668E-02 -3.471522E-03  5.363159E-04  9.356076E-02                                                                                                                                                                                                                                                                                                                                                                                                                                                                                              
  1.050000E+03  1.250000E+02 -5.425000E+03  1.685477E-09  8.429247E-15 -6.548787E-10 -1.553051E-09  9.321457E-12  4.677292E-17 -3.634003E-12 -8.583914E-12  0.000000E+00  0.000000E+00  0.000000E+00  0.000000E+00  0.000000E+00  0.000000E+00  0.000000E+00  0.000000E+00  9.591154E-02 -5.929881E-09  5.360129E-04  9.591004E-02                                                                                                                                                                                                                                                                                                                                                                                                                                                                                              
  1.225000E+03  1.250000E+02 -5.425000E+03  1.867067E-09  7.155087E-11 -6.537296E-10 -1.747414E-09  1.032339E-11  3.969506E-13 -3.626924E-12 -9.657130E-12  0.000000E+00  0.000000E+00  0.000000E+00  0.000000E+00  0.000000E+00  0.000000E+00  0.000000E+00  0.000000E+00  9.362670E-02  3.471510E-03  5.363115E-04  9.356078E-02                                                                                                                                                                                                                                                                                                                                                                                                                                                                                              
  1.475000E+03  1.250000E+02 -5.425000E+03  1.873600E-09  3.184772E-10 -6.483453E-10 -1.728756E-09  1.036020E-11  1.766945E-12 -3.596846E-12 -9.553760E-12  0.000000E+00  0.000000E+00  0.000000E+00  0.000000E+00  0.000000E+00  0.000000E+00  0.000000E+00  0.000000E+00  9.276024E-02  6.739771E-04  5.303892E-04  9.275628E-02                                                                                                                                                                                                                                                                                                                                                                                                                                                                                              
  1.725000E+03  1.250000E+02 -5.425000E+03  1.808174E-09  3.757148E-10 -6.386190E-10 -1.649394E-09  9.999454E-12  2.084512E-12 -3.542954E-12 -9.115446E-12  0.000000E+00  0.000000E+00  0.000000E+00  0.000000E+00  0.000000E+00  0.000000E+00  0.000000E+00  0.000000E+00  9.248918E-02 -1.412232E-04  5.168731E-04  9.248762E-02                                                                                                                                                                                                                                                                                                                                                                                                                                                                                              
  1.975000E+03  1.250000E+02 -5.425000E+03  1.714534E-09  1.649664E-10 -6.294262E-10 -1.586264E-09  9.481015E-12  9.152656E-13 -3.492051E-12 -8.766842E-12  0.000000E+00  0.000000E+00  0.000000E+00  0.000000E+00  0.000000E+00  0.000000E+00  0.000000E+00  0.000000E+00  9.237733E-02 -1.351558E-04  5.030570E-04  9.237586E-02                                                                                                                                                                                                                                                                                                                                                                                                                                                                                              
  1.250000E+02  1.250000E+02 -5.225000E+03  5.671548E-09 -1.446635E-10 -4.729498E-10 -5.649942E-09  3.111837E-11 -7.969441E-13 -2.605363E-12 -3.099887E-11  0.000000E+00  0.000000E+00  0.000000E+00  0.000000E+00  0.000000E+00  0.000000E+00  0.000000E+00  0.000000E+00  2.349152E-01  2.841735E-04  7.930288E-04  2.349137E-01                                                                                                                                                                                                                                                                                                                                                                                                                                                                                              
  3.750000E+02  1.250000E+02 -5.225000E+03  5.873473E-09 -3.517691E-10 -4.832547E-10 -5.842979E-09  3.222560E-11 -1.937832E-12 -2.662024E-12 -3.205695E-11  0.000000E+00  0.000000E+00  0.000000E+00  0.000000E+00  0.000000E+00  0.000000E+00  0.000000E+00  0.000000E+00  2.353292E-01  5.634231E-04  8.227995E-04  2.353271E-01                                                                                                                                                                                                                                                                                                                                                                                                                                                                                              
  6.250000E+02  1.250000E+02 -5.225000E+03  6.112807E-09 -3.801448E-10 -4.931138E-10 -6.081015E-09  3.353754E-11 -2.094090E-12 -2.716214E-12 -3.336171E-11  0.000000E+00  0.000000E+00  0.000000E+00  0.000000E+00  0.000000E+00  0.000000E+00  0.000000E+00  0.000000E+00  2.360830E-01  2.076186E-04  8.495941E-04  2.360814E-01                                                                                                                                                                                                                                                                                                                                                                                                                                                                                              
  8.750000E+02  1.250000E+02 -5.225000E+03  6.214681E-09 -2.296614E-10 -4.978072E-10 -6.190452E-09  3.409477E-11 -1.265113E-12 -2.742047E-12 -3.396077E-11  0.000000E+00  0.000000E+00  0.000000E+00  0.000000E+00  0.000000E+00  0.000000E+00  0.000000E+00  0.000000E+00  2.375265E-01 -4.212079E-04  8.603791E-04  2.375246E-01                                                                                                                                                                                                                                                                                                                                                                                                                                                                                              
  1.050000E+03  1.250000E+02 -5.225000E+03  5.988231E-09 -2.116139E-15 -4.983777E-10 -5.967456E-09  3.284602E-11 -1.165714E-17 -2.745244E-12 -3.273109E-11  0.000000E+00  0.000000E+00  0.000000E+00  0.000000E+00  0.000000E+00  0.000000E+00  0.000000E+00  0.000000E+00  2.401868E-01  8.984389E-09  8.613937E-04  2.401852E-01                                                                                                                                                                                                                                                                                                                                                                                                                                                                                              
  1.225000E+03  1.250000E+02 -5.225000E+03  6.214688E-09  2.296626E-10 -4.977967E-10 -6.190460E-09  3.409481E-11  1.265120E-12 -2.741989E-12 -3.396081E-11  0.000000E+00  0.000000E+00  0.000000E+00  0.000000E+00  0.000000E+00  0.000000E+00  0.000000E+00  0.000000E+00  2.375265E-01  4.212071E-04  8.603821E-04  2.375246E-01                                                                                                                                                                                                                                                                                                                                                                                                                                                                                              
  1.475000E+03  1.250000E+02 -5.225000E+03  6.112800E-09  3.801488E-10 -4.930985E-10 -6.081009E-09  3.353750E-11  2.094113E-12 -2.716129E-12 -3.336167E-11  0.000000E+00  0.000000E+00  0.000000E+00  0.000000E+00  0.000000E+00  0.000000E+00  0.000000E+00  0.000000E+00  2.360830E-01 -2.076273E-04  8.496144E-04  2.360814E-01                                                                                                                                                                                                                                                                                                                                                                                                                                                                                              
  1.725000E+03  1.250000E+02 -5.225000E+03  5.873473E-09  3.517685E-10 -4.832530E-10 -5.842980E-09  3.222560E-11  1.937829E-12 -2.662015E-12 -3.205695E-11  0.000000E+00  0.000000E+00  0.000000E+00  0.000000E+00  0.000000E+00  0.000000E+00  0.000000E+00  0.000000E+00  2.353292E-01 -5.634174E-04  8.228046E-04  2.353271E-01                                                                                                                                                                                                                                                                                                                                                                                                                                                                                              
  1.975000E+03  1.250000E+02 -5.225000E+03  5.671550E-09  1.446623E-10 -4.729497E-10 -5.649945E-09  3.111838E-11  7.969373E-13 -2.605362E-12 -3.099888E-11  0.000000E+00  0.000000E+00  0.000000E+00  0.000000E+00  0.000000E+00  0.000000E+00  0.000000E+00  0.000000E+00  2.349152E-01 -2.841689E-04  7.930284E-04  2.349137E-01                                                                                                                                                                                                                                                                                                                                                                                                                                                                                              
  1.250000E+02  1.250000E+02 -4.975000E+03  9.804709E-09 -1.355830E-10 -3.562050E-10 -9.797299E-09  5.319591E-11 -7.370961E-13 -1.936425E-12 -5.315554E-11  0.000000E+00  0.000000E+00  0.000000E+00  0.000000E+00  0.000000E+00  0.000000E+00  0.000000E+00  0.000000E+00  3.225101E-01  6.916205E-04  1.489511E-03  3.225059E-01                                                                                                                                                                                                                                                                                                                                                                                                                                                                                              
  3.750000E+02  1.250000E+02 -4.975000E+03  1.012316E-08 -3.270146E-10 -3.758230E-10 -1.011089E-08  5.491946E-11 -1.777727E-12 -2.042918E-12 -5.485265E-11  0.000000E+00  0.000000E+00  0.000000E+00  0.000000E+00  0.000000E+00  0.000000E+00  0.000000E+00  0.000000E+00  3.234025E-01  1.590703E-03  1.599807E-03  3.233946E-01                                                                                                                                                                                                                                                                                                                                                                                                                                                                                              
  6.250000E+02  1.250000E+02 -4.975000E+03  1.050021E-08 -3.553407E-10 -3.916257E-10 -1.048688E-08  5.695955E-11 -1.931577E-12 -2.128612E-12 -5.688698E-11  0.000000E+00  0.000000E+00  0.000000E+00  0.000000E+00  0.000000E+00  0.000000E+00  0.000000E+00  0.000000E+00  3.246237E-01  1.546139E-03  1.684018E-03  3.246157E-01                                                                                                                                                                                                                                                                                                                                                                                                                                                                                              
  8.750000E+02  1.250000E+02 -4.975000E+03  1.076585E-08 -1.989187E-10 -3.976808E-10 -1.075666E-08  5.839440E-11 -1.081237E-12 -2.161373E-12 -5.834437E-11  0.000000E+00  0.000000E+00  0.000000E+00  0.000000E+00  0.000000E+00  0.000000E+00  0.000000E+00  0.000000E+00  3.260817E-01  7.321042E-04  1.708581E-03  3.260764E-01                                                                                                                                                                                                                                                                                                                                                                                                                                                                                              
  1.050000E+03  1.250000E+02 -4.975000E+03  1.075118E-08  5.481706E-16 -3.985147E-10 -1.074380E-08  5.831271E-11  2.979525E-18 -2.165890E-12 -5.827247E-11  0.000000E+00  0.000000E+00  0.000000E+00  0.000000E+00  0.000000E+00  0.000000E+00  0.000000E+00  0.000000E+00  3.265519E-01  5.733973E-10  1.710434E-03  3.265475E-01                                                                                                                                                                                                                                                                                                                                                                                                                                                                                              
  1.225000E+03  1.250000E+02 -4.975000E+03  1.076585E-08  1.989196E-10 -3.976792E-10 -1.075666E-08  5.839440E-11  1.081242E-12 -2.161364E-12 -5.834437E-11  0.000000E+00  0.000000E+00  0.000000E+00  0.000000E+00  0.000000E+00  0.000000E+00  0.000000E+00  0.000000E+00  3.260817E-01 -7.321041E-04  1.708583E-03  3.260764E-01                                                                                                                                                                                                                                                                                                                                                                                                                                                                                              
  1.475000E+03  1.250000E+02 -4.975000E+03  1.050021E-08  3.553400E-10 -3.916189E-10 -1.048689E-08  5.695955E-11  1.931573E-12 -2.128575E-12 -5.688698E-11  0.000000E+00  0.000000E+00  0.000000E+00  0.000000E+00  0.000000E+00  0.000000E+00  0.000000E+00  0.000000E+00  3.246237E-01 -1.546139E-03  1.684024E-03  3.246157E-01                                                                                                                                                                                                                                                                                                                                                                                                                                                                                              
  1.725000E+03  1.250000E+02 -4.975000E+03  1.012316E-08  3.270094E-10 -3.758192E-10 -1.011089E-08  5.491947E-11  1.777699E-12 -2.042897E-12 -5.485266E-11  0.000000E+00  0.000000E+00  0.000000E+00  0.000000E+00  0.000000E+00  0.000000E+00  0.000000E+00  0.000000E+00  3.234025E-01 -1.590707E-03  1.599810E-03  3.233946E-01                                                                                                                                                                                                                                                                                                                                                                                                                                                                                              
  1.975000E+03  1.250000E+02 -4.975000E+03  9.804711E-09  1.355790E-10 -3.562073E-10 -9.797300E-09  5.319592E-11  7.370741E-13 -1.936438E-12 -5.315555E-11  0.000000E+00  0.000000E+00  0.000000E+00  0.000000E+00  0.000000E+00  0.000000E+00  0.000000E+00  0.000000E+00  3.225101E-01 -6.916251E-04  1.489514E-03  3.225059E-01                                                                                                                                                                                                                                                                                                                                                                                                                                                                                              
  1.250000E+02  1.250000E+02 -4.725000E+03  1.201493E-08 -9.776923E-11 -2.594531E-10 -1.201173E-08  6.436011E-11 -5.233241E-13 -1.388668E-12 -6.434300E-11  0.000000E+00  0.000000E+00  0.000000E+00  0.000000E+00  0.000000E+00  0.000000E+00  0.000000E+00  0.000000E+00  3.766030E-01  1.424767E-03  3.012575E-03  3.765883E-01                                                                                                                                                                                                                                                                                                                                                                                                                                                                                              
  3.750000E+02  1.250000E+02 -4.725000E+03  1.241684E-08 -2.192168E-10 -2.931156E-10 -1.241144E-08  6.650433E-11 -1.173300E-12 -1.568618E-12 -6.647548E-11  0.000000E+00  0.000000E+00  0.000000E+00  0.000000E+00  0.000000E+00  0.000000E+00  0.000000E+00  0.000000E+00  3.782548E-01  3.249600E-03  3.447918E-03  3.782252E-01                                                                                                                                                                                                                                                                                                                                                                                                                                                                                              
  6.250000E+02  1.250000E+02 -4.725000E+03  1.285915E-08 -2.252601E-10 -3.165675E-10 -1.285328E-08  6.886343E-11 -1.205488E-12 -1.693838E-12 -6.883204E-11  0.000000E+00  0.000000E+00  0.000000E+00  0.000000E+00  0.000000E+00  0.000000E+00  0.000000E+00  0.000000E+00  3.798868E-01  3.452167E-03  3.720324E-03  3.798529E-01                                                                                                                                                                                                                                                                                                                                                                                                                                                                                              
  8.750000E+02  1.250000E+02 -4.725000E+03  1.327037E-08 -1.164003E-10 -3.260221E-10 -1.326585E-08  7.105413E-11 -6.228658E-13 -1.744181E-12 -7.102999E-11  0.000000E+00  0.000000E+00  0.000000E+00  0.000000E+00  0.000000E+00  0.000000E+00  0.000000E+00  0.000000E+00  3.824102E-01  1.970502E-03  3.766901E-03  3.823865E-01                                                                                                                                                                                                                                                                                                                                                                                                                                                                                              
  1.050000E+03  1.250000E+02 -4.725000E+03  1.326808E-08  1.348215E-15 -3.297830E-10 -1.326398E-08  7.104136E-11  7.213852E-18 -1.764265E-12 -7.101945E-11  0.000000E+00  0.000000E+00  0.000000E+00  0.000000E+00  0.000000E+00  0.000000E+00  0.000000E+00  0.000000E+00  3.831351E-01  5.560596E-09  3.766070E-03  3.831166E-01                                                                                                                                                                                                                                                                                                                                                                                                                                                                                              
  1.225000E+03  1.250000E+02 -4.725000E+03  1.327037E-08  1.164012E-10 -3.260213E-10 -1.326585E-08  7.105414E-11  6.228706E-13 -1.744176E-12 -7.103000E-11  0.000000E+00  0.000000E+00  0.000000E+00  0.000000E+00  0.000000E+00  0.000000E+00  0.000000E+00  0.000000E+00  3.824101E-01 -1.970500E-03  3.766898E-03  3.823865E-01                                                                                                                                                                                                                                                                                                                                                                                                                                                                                              
  1.475000E+03  1.250000E+02 -4.725000E+03  1.285915E-08  2.252602E-10 -3.165668E-10 -1.285328E-08  6.886344E-11  1.205489E-12 -1.693835E-12 -6.883205E-11  0.000000E+00  0.000000E+00  0.000000E+00  0.000000E+00  0.000000E+00  0.000000E+00  0.000000E+00  0.000000E+00  3.798868E-01 -3.452170E-03  3.720323E-03  3.798529E-01                                                                                                                                                                                                                                                                                                                                                                                                                                                                                              
  1.725000E+03  1.250000E+02 -4.725000E+03  1.241684E-08  2.192164E-10 -2.931150E-10 -1.241144E-08  6.650433E-11  1.173298E-12 -1.568615E-12 -6.647548E-11  0.000000E+00  0.000000E+00  0.000000E+00  0.000000E+00  0.000000E+00  0.000000E+00  0.000000E+00  0.000000E+00  3.782548E-01 -3.249601E-03  3.447916E-03  3.782252E-01                                                                                                                                                                                                                                                                                                                                                                                                                                                                                              