Title="TOUGHREACT V3.30-OMP flowvector.tec: Liq & Gas Fluxes (kg/s/m^2), Pore Velocities (m/s), & Heat Fluxes (J/s/m2)"                                                                                                                                                                                                                                                                                                                                                                                                                                                                                                                                                                                                                                                                                                         
Variables= "X(m)"     "Y(m)"      "Z(m)"     "FluxLiq"   "FluxLiq_X"   "FluxLiq_Y"   "FluxLiq_Z"   "PorVelLiq"  "PorVelLiqX"  "PorVelLiqY"  "PorVelLiqZ"     "FluxGas"   "FluxGas_X"   "FluxGas_Y"   "FluxGas_Z"   "PorVelGas"  "PorVelGasX"  "PorVelGasY"  "PorVelGasZ"    "HeatFlux"  "HeatFlux_X"  "HeatFlux_Y"  "HeatFlux_Z"                                                                                                                                                                                                                                                                                                                                                                                                                                                                                                
Zone T= "5.18400000E+05 sec" I=     9 J=    10 K=    23 F=Point
  1.250000E+02  1.250000E+02 -5.425000E+03  3.541899E-09 -2.683993E-10 -7.008927E-10 -3.461468E-09  1.991077E-11 -1.513408E-12 -3.952000E-12 -1.945585E-11  0.000000E+00  0.000000E+00  0.000000E+00  0.000000E+00  0.000000E+00  0.000000E+00  0.000000E+00  0.000000E+00  6.450037E-02  2.330245E-04  2.437140E-04  6.449949E-02                                                                                                                                                                                                                                                                                                                                                                                                                                                                                              
  3.750000E+02  1.250000E+02 -5.425000E+03  3.676251E-09 -6.532086E-10 -7.121967E-10 -3.546958E-09  2.066647E-11 -3.683077E-12 -4.015530E-12 -1.993523E-11  0.000000E+00  0.000000E+00  0.000000E+00  0.000000E+00  0.000000E+00  0.000000E+00  0.000000E+00  0.000000E+00  6.460251E-02  5.651002E-04  2.572708E-04  6.459952E-02                                                                                                                                                                                                                                                                                                                                                                                                                                                                                              
  6.250000E+02  1.250000E+02 -5.425000E+03  3.796573E-09 -6.829645E-10 -7.231445E-10 -3.663957E-09  2.134114E-11 -3.850650E-12 -4.076957E-12 -2.059114E-11  0.000000E+00  0.000000E+00  0.000000E+00  0.000000E+00  0.000000E+00  0.000000E+00  0.000000E+00  0.000000E+00  6.474022E-02  5.908753E-04  2.687835E-04  6.473697E-02                                                                                                                                                                                                                                                                                                                                                                                                                                                                                              
  8.750000E+02  1.250000E+02 -5.425000E+03  3.844513E-09 -3.651843E-10 -7.280729E-10 -3.757237E-09  2.160760E-11 -2.058874E-12 -4.104511E-12 -2.111404E-11  0.000000E+00  0.000000E+00  0.000000E+00  0.000000E+00  0.000000E+00  0.000000E+00  0.000000E+00  0.000000E+00  6.485110E-02  2.922377E-04  2.723327E-04  6.484987E-02                                                                                                                                                                                                                                                                                                                                                                                                                                                                                              
  1.050000E+03  1.250000E+02 -5.425000E+03  3.826990E-09  1.702507E-14 -7.285951E-10 -3.756993E-09  2.150834E-11  9.598313E-17 -4.107426E-12 -2.111250E-11  0.000000E+00  0.000000E+00  0.000000E+00  0.000000E+00  0.000000E+00  0.000000E+00  0.000000E+00  0.000000E+00  6.487559E-02  2.080258E-08  2.726544E-04  6.487502E-02                                                                                                                                                                                                                                                                                                                                                                                                                                                                                              
  1.225000E+03  1.250000E+02 -5.425000E+03  3.844501E-09  3.652020E-10 -7.280721E-10 -3.757224E-09  2.160754E-11  2.058974E-12 -4.104506E-12 -2.111396E-11  0.000000E+00  0.000000E+00  0.000000E+00  0.000000E+00  0.000000E+00  0.000000E+00  0.000000E+00  0.000000E+00  6.485111E-02 -2.922264E-04  2.723230E-04  6.484988E-02                                                                                                                                                                                                                                                                                                                                                                                                                                                                                              
  1.475000E+03  1.250000E+02 -5.425000E+03  3.796585E-09  6.829663E-10 -7.231623E-10 -3.663967E-09  2.134121E-11  3.850659E-12 -4.077058E-12 -2.059120E-11  0.000000E+00  0.000000E+00  0.000000E+00  0.000000E+00  0.000000E+00  0.000000E+00  0.000000E+00  0.000000E+00  6.474020E-02 -5.908475E-04  2.687526E-04  6.473695E-02                                                                                                                                                                                                                                                                                                                                                                                                                                                                                              
  1.725000E+03  1.250000E+02 -5.425000E+03  3.676273E-09  6.532372E-10 -7.122095E-10 -3.546974E-09  2.066660E-11  3.683239E-12 -4.015602E-12 -1.993532E-11  0.000000E+00  0.000000E+00  0.000000E+00  0.000000E+00  0.000000E+00  0.000000E+00  0.000000E+00  0.000000E+00  6.460247E-02 -5.650631E-04  2.572373E-04  6.459948E-02                                                                                                                                                                                                                                                                                                                                                                                                                                                                                              
  1.975000E+03  1.250000E+02 -5.425000E+03  3.541912E-09  2.684269E-10 -7.009242E-10 -3.461473E-09  1.991084E-11  1.513564E-12 -3.952177E-12 -1.945588E-11  0.000000E+00  0.000000E+00  0.000000E+00  0.000000E+00  0.000000E+00  0.000000E+00  0.000000E+00  0.000000E+00  6.450036E-02 -2.330247E-04  2.436724E-04  6.449948E-02                                                                                                                                                                                                                                                                                                                                                                                                                                                                                              
  1.250000E+02  1.250000E+02 -5.225000E+03  1.256122E-08 -2.087109E-10 -5.693425E-10 -1.254658E-08  7.002454E-11 -1.170305E-12 -3.192389E-12 -6.994194E-11  0.000000E+00  0.000000E+00  0.000000E+00  0.000000E+00  0.000000E+00  0.000000E+00  0.000000E+00  0.000000E+00  2.313488E-01  4.279212E-04  6.241736E-04  2.313476E-01                                                                                                                                                                                                                                                                                                                                                                                                                                                                                              
  3.750000E+02  1.250000E+02 -5.225000E+03  1.284841E-08 -5.050342E-10 -5.824737E-10 -1.282526E-08  7.162114E-11 -2.831750E-12 -3.265802E-12 -7.149058E-11  0.000000E+00  0.000000E+00  0.000000E+00  0.000000E+00  0.000000E+00  0.000000E+00  0.000000E+00  0.000000E+00  2.317905E-01  1.033281E-03  6.581945E-04  2.317872E-01                                                                                                                                                                                                                                                                                                                                                                                                                                                                                              
  6.250000E+02  1.250000E+02 -5.225000E+03  1.322444E-08 -5.269925E-10 -5.942021E-10 -1.320056E-08  7.371015E-11 -2.954673E-12 -3.331254E-12 -7.357554E-11  0.000000E+00  0.000000E+00  0.000000E+00  0.000000E+00  0.000000E+00  0.000000E+00  0.000000E+00  0.000000E+00  2.323790E-01  1.081846E-03  6.860575E-04  2.323755E-01                                                                                                                                                                                                                                                                                                                                                                                                                                                                                              
  8.750000E+02  1.250000E+02 -5.225000E+03  1.352190E-08 -2.718028E-10 -5.989258E-10 -1.350589E-08  7.536169E-11 -1.523831E-12 -3.357497E-12 -7.527144E-11  0.000000E+00  0.000000E+00  0.000000E+00  0.000000E+00  0.000000E+00  0.000000E+00  0.000000E+00  0.000000E+00  2.328812E-01  5.619401E-04  6.945359E-04  2.328795E-01                                                                                                                                                                                                                                                                                                                                                                                                                                                                                              
  1.050000E+03  1.250000E+02 -5.225000E+03  1.354589E-08  3.305245E-14 -5.994563E-10 -1.353262E-08  7.549393E-11  1.852983E-16 -3.360441E-12 -7.541910E-11  0.000000E+00  0.000000E+00  0.000000E+00  0.000000E+00  0.000000E+00  0.000000E+00  0.000000E+00  0.000000E+00  2.329589E-01  2.856148E-08  6.952231E-04  2.329578E-01                                                                                                                                                                                                                                                                                                                                                                                                                                                                                              
  1.225000E+03  1.250000E+02 -5.225000E+03  1.352190E-08  2.718150E-10 -5.989449E-10 -1.350589E-08  7.536169E-11  1.523899E-12 -3.357603E-12 -7.527143E-11  0.000000E+00  0.000000E+00  0.000000E+00  0.000000E+00  0.000000E+00  0.000000E+00  0.000000E+00  0.000000E+00  2.328812E-01 -5.619475E-04  6.945274E-04  2.328795E-01                                                                                                                                                                                                                                                                                                                                                                                                                                                                                              
  1.475000E+03  1.250000E+02 -5.225000E+03  1.322444E-08  5.269747E-10 -5.942032E-10 -1.320057E-08  7.371020E-11  2.954574E-12 -3.331260E-12 -7.357559E-11  0.000000E+00  0.000000E+00  0.000000E+00  0.000000E+00  0.000000E+00  0.000000E+00  0.000000E+00  0.000000E+00  2.323790E-01 -1.081853E-03  6.860675E-04  2.323755E-01                                                                                                                                                                                                                                                                                                                                                                                                                                                                                              
  1.725000E+03  1.250000E+02 -5.225000E+03  1.284843E-08  5.050694E-10 -5.824794E-10 -1.282528E-08  7.162121E-11  2.831948E-12 -3.265834E-12 -7.149064E-11  0.000000E+00  0.000000E+00  0.000000E+00  0.000000E+00  0.000000E+00  0.000000E+00  0.000000E+00  0.000000E+00  2.317904E-01 -1.033230E-03  6.581815E-04  2.317872E-01                                                                                                                                                                                                                                                                                                                                                                                                                                                                                              
  1.975000E+03  1.250000E+02 -5.225000E+03  1.256125E-08  2.087429E-10 -5.693760E-10 -1.254660E-08  7.002468E-11  1.170484E-12 -3.192577E-12 -6.994207E-11  0.000000E+00  0.000000E+00  0.000000E+00  0.000000E+00  0.000000E+00  0.000000E+00  0.000000E+00  0.000000E+00  2.313488E-01 -4.279002E-04  6.241513E-04  2.313476E-01                                                                                                                                                                                                                                                                                                                                                                                                                                                                                              
  1.250000E+02  1.250000E+02 -4.975000E+03  2.211413E-08 -1.752640E-10 -4.631159E-10 -2.210859E-08  1.214417E-10 -9.658618E-13 -2.552068E-12 -1.214110E-10  0.000000E+00  0.000000E+00  0.000000E+00  0.000000E+00  0.000000E+00  0.000000E+00  0.000000E+00  0.000000E+00  4.161995E-01  9.551144E-04  1.683976E-03  4.161950E-01                                                                                                                                                                                                                                                                                                                                                                                                                                                                                              
  3.750000E+02  1.250000E+02 -4.975000E+03  2.258421E-08 -4.142815E-10 -4.878621E-10 -2.257514E-08  1.240091E-10 -2.282897E-12 -2.688131E-12 -1.239589E-10  0.000000E+00  0.000000E+00  0.000000E+00  0.000000E+00  0.000000E+00  0.000000E+00  0.000000E+00  0.000000E+00  4.172808E-01  2.272741E-03  1.822101E-03  4.172706E-01                                                                                                                                                                                                                                                                                                                                                                                                                                                                                              
  6.250000E+02  1.250000E+02 -4.975000E+03  2.318571E-08 -4.292982E-10 -5.068273E-10 -2.317620E-08  1.272933E-10 -2.365382E-12 -2.792207E-12 -1.272407E-10  0.000000E+00  0.000000E+00  0.000000E+00  0.000000E+00  0.000000E+00  0.000000E+00  0.000000E+00  0.000000E+00  4.186072E-01  2.393551E-03  1.922334E-03  4.185960E-01                                                                                                                                                                                                                                                                                                                                                                                                                                                                                              
  8.750000E+02  1.250000E+02 -4.975000E+03  2.370047E-08 -2.240296E-10 -5.130013E-10 -2.369385E-08  1.301021E-10 -1.234273E-12 -2.825882E-12 -1.300655E-10  0.000000E+00  0.000000E+00  0.000000E+00  0.000000E+00  0.000000E+00  0.000000E+00  0.000000E+00  0.000000E+00  4.199213E-01  1.275212E-03  1.945414E-03  4.199149E-01                                                                                                                                                                                                                                                                                                                                                                                                                                                                                              
  1.050000E+03  1.250000E+02 -4.975000E+03  2.376375E-08  1.251649E-14 -5.138639E-10 -2.375819E-08  1.304471E-10  6.895466E-17 -2.830590E-12 -1.304164E-10  0.000000E+00  0.000000E+00  0.000000E+00  0.000000E+00  0.000000E+00  0.000000E+00  0.000000E+00  0.000000E+00  4.201341E-01 -7.996809E-10  1.946632E-03  4.201296E-01                                                                                                                                                                                                                                                                                                                                                                                                                                                                                              
  1.225000E+03  1.250000E+02 -4.975000E+03  2.370048E-08  2.240317E-10 -5.130163E-10 -2.369387E-08  1.301021E-10  1.234284E-12 -2.825964E-12 -1.300656E-10  0.000000E+00  0.000000E+00  0.000000E+00  0.000000E+00  0.000000E+00  0.000000E+00  0.000000E+00  0.000000E+00  4.199213E-01 -1.275224E-03  1.945397E-03  4.199149E-01                                                                                                                                                                                                                                                                                                                                                                                                                                                                                              
  1.475000E+03  1.250000E+02 -4.975000E+03  2.318571E-08  4.293007E-10 -5.068256E-10 -2.317619E-08  1.272933E-10  2.365396E-12 -2.792198E-12 -1.272407E-10  0.000000E+00  0.000000E+00  0.000000E+00  0.000000E+00  0.000000E+00  0.000000E+00  0.000000E+00  0.000000E+00  4.186072E-01 -2.393538E-03  1.922347E-03  4.185960E-01                                                                                                                                                                                                                                                                                                                                                                                                                                                                                              
  1.725000E+03  1.250000E+02 -4.975000E+03  2.258422E-08  4.143006E-10 -4.878713E-10 -2.257515E-08  1.240091E-10  2.283003E-12 -2.688182E-12 -1.239590E-10  0.000000E+00  0.000000E+00  0.000000E+00  0.000000E+00  0.000000E+00  0.000000E+00  0.000000E+00  0.000000E+00  4.172808E-01 -2.272720E-03  1.822082E-03  4.172706E-01                                                                                                                                                                                                                                                                                                                                                                                                                                                                                              
  1.975000E+03  1.250000E+02 -4.975000E+03  2.211416E-08  1.752702E-10 -4.631192E-10 -2.210862E-08  1.214418E-10  9.658963E-13 -2.552087E-12 -1.214112E-10  0.000000E+00  0.000000E+00  0.000000E+00  0.000000E+00  0.000000E+00  0.000000E+00  0.000000E+00  0.000000E+00  4.161995E-01 -9.551182E-04  1.683977E-03  4.161950E-01                                                                                                                                                                                                                                                                                                                                                                                                                                                                                              
  1.250000E+02  1.250000E+02 -4.725000E+03  2.732023E-08 -1.227007E-10 -3.417274E-10 -2.731782E-08  1.472415E-10 -6.605432E-13 -1.839482E-12 -1.472285E-10  0.000000E+00  0.000000E+00  0.000000E+00  0.000000E+00  0.000000E+00  0.000000E+00  0.000000E+00  0.000000E+00  5.408809E-01  1.916779E-03  3.904109E-03  5.408634E-01                                                                                                                                                                                                                                                                                                                                                                                                                                                                                              
  3.750000E+02  1.250000E+02 -4.725000E+03  2.790885E-08 -2.717281E-10 -3.831538E-10 -2.790489E-08  1.503873E-10 -1.462655E-12 -2.062071E-12 -1.503661E-10  0.000000E+00  0.000000E+00  0.000000E+00  0.000000E+00  0.000000E+00  0.000000E+00  0.000000E+00  0.000000E+00  5.429594E-01  4.408993E-03  4.457423E-03  5.429232E-01                                                                                                                                                                                                                                                                                                                                                                                                                                                                                              
  6.250000E+02  1.250000E+02 -4.725000E+03  2.859861E-08 -2.732489E-10 -4.109272E-10 -2.859435E-08  1.540726E-10 -1.470569E-12 -2.211019E-12 -1.540497E-10  0.000000E+00  0.000000E+00  0.000000E+00  0.000000E+00  0.000000E+00  0.000000E+00  0.000000E+00  0.000000E+00  5.449215E-01  4.750732E-03  4.790203E-03  5.448797E-01                                                                                                                                                                                                                                                                                                                                                                                                                                                                                              
  8.750000E+02  1.250000E+02 -4.725000E+03  2.926594E-08 -1.378404E-10 -4.209457E-10 -2.926259E-08  1.576337E-10 -7.417341E-13 -2.264465E-12 -1.576157E-10  0.000000E+00  0.000000E+00  0.000000E+00  0.000000E+00  0.000000E+00  0.000000E+00  0.000000E+00  0.000000E+00  5.480071E-01  2.738300E-03  4.827736E-03  5.479790E-01                                                                                                                                                                                                                                                                                                                                                                                                                                                                                              
  1.050000E+03  1.250000E+02 -4.725000E+03  2.929050E-08  3.667306E-15 -4.255410E-10 -2.928741E-08  1.577633E-10  1.973207E-17 -2.289119E-12 -1.577467E-10  0.000000E+00  0.000000E+00  0.000000E+00  0.000000E+00  0.000000E+00  0.000000E+00  0.000000E+00  0.000000E+00  5.489082E-01  1.867537E-09  4.823267E-03  5.488870E-01                                                                                                                                                                                                                                                                                                                                                                                                                                                                                              
  1.225000E+03  1.250000E+02 -4.725000E+03  2.926595E-08  1.378412E-10 -4.209468E-10 -2.926260E-08  1.576338E-10  7.417381E-13 -2.264471E-12 -1.576158E-10  0.000000E+00  0.000000E+00  0.000000E+00  0.000000E+00  0.000000E+00  0.000000E+00  0.000000E+00  0.000000E+00  5.480071E-01 -2.738300E-03  4.827738E-03  5.479790E-01                                                                                                                                                                                                                                                                                                                                                                                                                                                                                              
  1.475000E+03  1.250000E+02 -4.725000E+03  2.859861E-08  2.732482E-10 -4.109274E-10 -2.859435E-08  1.540726E-10  1.470565E-12 -2.211020E-12 -1.540497E-10  0.000000E+00  0.000000E+00  0.000000E+00  0.000000E+00  0.000000E+00  0.000000E+00  0.000000E+00  0.000000E+00  5.449215E-01 -4.750735E-03  4.790206E-03  5.448797E-01                                                                                                                                                                                                                                                                                                                                                                                                                                                                                              
  1.725000E+03  1.250000E+02 -4.725000E+03  2.790886E-08  2.717288E-10 -3.831536E-10 -2.790491E-08  1.503874E-10  1.462659E-12 -2.062070E-12 -1.503661E-10  0.000000E+00  0.000000E+00  0.000000E+00  0.000000E+00  0.000000E+00  0.000000E+00  0.000000E+00  0.000000E+00  5.429593E-01 -4.408998E-03  4.457427E-03  5.429231E-01                                                                                                                                                                                                                                                                                                                                                                                                                                                                                              