Title="TOUGHREACT V3.30-OMP flowvector.tec: Liq & Gas Fluxes (kg/s/m^2), Pore Velocities (m/s), & Heat Fluxes (J/s/m2)"                                                                                                                                                                                                                                                                                                                                                                                                                                                                                                                                                                                                                                                                                                         
Variables= "X(m)"     "Y(m)"      "Z(m)"     "FluxLiq"   "FluxLiq_X"   "FluxLiq_Y"   "FluxLiq_Z"   "PorVelLiq"  "PorVelLiqX"  "PorVelLiqY"  "PorVelLiqZ"     "FluxGas"   "FluxGas_X"   "FluxGas_Y"   "FluxGas_Z"   "PorVelGas"  "PorVelGasX"  "PorVelGasY"  "PorVelGasZ"    "HeatFlux"  "HeatFlux_X"  "HeatFlux_Y"  "HeatFlux_Z"                                                                                                                                                                                                                                                                                                                                                                                                                                                                                                
Zone T= "3.15569000E+08 sec" I=     9 J=    10 K=    24 F=Point
  1.250000E+02  1.250000E+02 -5.425000E+03  4.138553E-07  1.916174E-10 -1.447970E-10  4.138553E-07  2.404270E-09  1.117793E-12 -8.446679E-13  2.404269E-09  0.000000E+00  0.000000E+00  0.000000E+00  0.000000E+00  0.000000E+00  0.000000E+00  0.000000E+00  0.000000E+00  5.176020E-01  1.944906E-04 -1.469686E-04  5.176019E-01                                                                                                                                                                                                                                                                                                                                                                                                                                                                                              
  3.750000E+02  1.250000E+02 -5.425000E+03  4.138439E-07  4.354526E-10 -1.464149E-10  4.138437E-07  2.404205E-09  2.540198E-12 -8.541064E-13  2.404203E-09  0.000000E+00  0.000000E+00  0.000000E+00  0.000000E+00  0.000000E+00  0.000000E+00  0.000000E+00  0.000000E+00  5.175903E-01  4.419824E-04 -1.486110E-04  5.175901E-01                                                                                                                                                                                                                                                                                                                                                                                                                                                                                              
  6.250000E+02  1.250000E+02 -5.425000E+03  4.138028E-07  4.036450E-10 -1.442311E-10  4.138025E-07  2.403967E-09  2.354651E-12 -8.413679E-13  2.403966E-09  0.000000E+00  0.000000E+00  0.000000E+00  0.000000E+00  0.000000E+00  0.000000E+00  0.000000E+00  0.000000E+00  5.175484E-01  4.096985E-04 -1.463939E-04  5.175482E-01                                                                                                                                                                                                                                                                                                                                                                                                                                                                                              
  8.750000E+02  1.250000E+02 -5.425000E+03  4.137469E-07  1.865579E-10 -1.385936E-10  4.137469E-07  2.403644E-09  1.088280E-12 -8.084821E-13  2.403644E-09  0.000000E+00  0.000000E+00  0.000000E+00  0.000000E+00  0.000000E+00  0.000000E+00  0.000000E+00  0.000000E+00  5.174917E-01  1.893560E-04 -1.406719E-04  5.174917E-01                                                                                                                                                                                                                                                                                                                                                                                                                                                                                              
  1.050000E+03  1.250000E+02 -5.425000E+03  4.137369E-07 -2.187764E-16 -1.376378E-10  4.137369E-07  2.403586E-09 -1.276227E-18 -8.029066E-13  2.403586E-09  0.000000E+00  0.000000E+00  0.000000E+00  0.000000E+00  0.000000E+00  0.000000E+00  0.000000E+00  0.000000E+00  5.174815E-01 -2.492604E-10 -1.397020E-04  5.174815E-01                                                                                                                                                                                                                                                                                                                                                                                                                                                                                              
  1.225000E+03  1.250000E+02 -5.425000E+03  4.137469E-07 -1.865583E-10 -1.385935E-10  4.137469E-07  2.403644E-09 -1.088283E-12 -8.084814E-13  2.403644E-09  0.000000E+00  0.000000E+00  0.000000E+00  0.000000E+00  0.000000E+00  0.000000E+00  0.000000E+00  0.000000E+00  5.174917E-01 -1.893564E-04 -1.406722E-04  5.174917E-01                                                                                                                                                                                                                                                                                                                                                                                                                                                                                              
  1.475000E+03  1.250000E+02 -5.425000E+03  4.138028E-07 -4.036453E-10 -1.442310E-10  4.138025E-07  2.403967E-09 -2.354653E-12 -8.413672E-13  2.403966E-09  0.000000E+00  0.000000E+00  0.000000E+00  0.000000E+00  0.000000E+00  0.000000E+00  0.000000E+00  0.000000E+00  5.175484E-01 -4.096988E-04 -1.463938E-04  5.175482E-01                                                                                                                                                                                                                                                                                                                                                                                                                                                                                              
  1.725000E+03  1.250000E+02 -5.425000E+03  4.138439E-07 -4.354526E-10 -1.464148E-10  4.138437E-07  2.404205E-09 -2.540198E-12 -8.541059E-13  2.404203E-09  0.000000E+00  0.000000E+00  0.000000E+00  0.000000E+00  0.000000E+00  0.000000E+00  0.000000E+00  0.000000E+00  5.175903E-01 -4.419829E-04 -1.486105E-04  5.175901E-01                                                                                                                                                                                                                                                                                                                                                                                                                                                                                              
  1.975000E+03  1.250000E+02 -5.425000E+03  4.138553E-07 -1.916173E-10 -1.447969E-10  4.138553E-07  2.404270E-09 -1.117793E-12 -8.446675E-13  2.404269E-09  0.000000E+00  0.000000E+00  0.000000E+00  0.000000E+00  0.000000E+00  0.000000E+00  0.000000E+00  0.000000E+00  5.176020E-01 -1.944909E-04 -1.469685E-04  5.176019E-01                                                                                                                                                                                                                                                                                                                                                                                                                                                                                              
  1.250000E+02  1.250000E+02 -5.225000E+03  1.423800E-06  1.786300E-10 -1.349260E-10  1.423800E-06  8.217583E-09  1.033310E-12 -7.804977E-13  8.217583E-09  0.000000E+00  0.000000E+00  0.000000E+00  0.000000E+00  0.000000E+00  0.000000E+00  0.000000E+00  0.000000E+00  1.606704E+00  1.750554E-04 -1.322408E-04  1.606704E+00                                                                                                                                                                                                                                                                                                                                                                                                                                                                                              
  3.750000E+02  1.250000E+02 -5.225000E+03  1.423758E-06  3.853276E-10 -1.402396E-10  1.423758E-06  8.217343E-09  2.228982E-12 -8.112357E-13  8.217342E-09  0.000000E+00  0.000000E+00  0.000000E+00  0.000000E+00  0.000000E+00  0.000000E+00  0.000000E+00  0.000000E+00  1.606671E+00  3.776158E-04 -1.374493E-04  1.606671E+00                                                                                                                                                                                                                                                                                                                                                                                                                                                                                              
  6.250000E+02  1.250000E+02 -5.225000E+03  1.423590E-06  3.197320E-10 -1.394234E-10  1.423590E-06  8.216380E-09  1.849536E-12 -8.065146E-13  8.216379E-09  0.000000E+00  0.000000E+00  0.000000E+00  0.000000E+00  0.000000E+00  0.000000E+00  0.000000E+00  0.000000E+00  1.606509E+00  3.133375E-04 -1.366506E-04  1.606509E+00                                                                                                                                                                                                                                                                                                                                                                                                                                                                                              
  8.750000E+02  1.250000E+02 -5.225000E+03  1.423344E-06  1.280794E-10 -1.310852E-10  1.423344E-06  8.214964E-09  7.408941E-13 -7.582815E-13  8.214964E-09  0.000000E+00  0.000000E+00  0.000000E+00  0.000000E+00  0.000000E+00  0.000000E+00  0.000000E+00  0.000000E+00  1.606268E+00  1.255293E-04 -1.284815E-04  1.606268E+00                                                                                                                                                                                                                                                                                                                                                                                                                                                                                              
  1.050000E+03  1.250000E+02 -5.225000E+03  1.423284E-06 -1.735153E-16 -1.289767E-10  1.423284E-06  8.214616E-09 -1.003725E-18 -7.460846E-13  8.214616E-09  0.000000E+00  0.000000E+00  0.000000E+00  0.000000E+00  0.000000E+00  0.000000E+00  0.000000E+00  0.000000E+00  1.606211E+00 -1.636574E-10 -1.264235E-04  1.606211E+00                                                                                                                                                                                                                                                                                                                                                                                                                                                                                              
  1.225000E+03  1.250000E+02 -5.225000E+03  1.423344E-06 -1.280797E-10 -1.310852E-10  1.423344E-06  8.214964E-09 -7.408960E-13 -7.582814E-13  8.214964E-09  0.000000E+00  0.000000E+00  0.000000E+00  0.000000E+00  0.000000E+00  0.000000E+00  0.000000E+00  0.000000E+00  1.606268E+00 -1.255296E-04 -1.284815E-04  1.606268E+00                                                                                                                                                                                                                                                                                                                                                                                                                                                                                              
  1.475000E+03  1.250000E+02 -5.225000E+03  1.423590E-06 -3.197322E-10 -1.394233E-10  1.423590E-06  8.216380E-09 -1.849537E-12 -8.065142E-13  8.216379E-09  0.000000E+00  0.000000E+00  0.000000E+00  0.000000E+00  0.000000E+00  0.000000E+00  0.000000E+00  0.000000E+00  1.606509E+00 -3.133377E-04 -1.366505E-04  1.606509E+00                                                                                                                                                                                                                                                                                                                                                                                                                                                                                              
  1.725000E+03  1.250000E+02 -5.225000E+03  1.423758E-06 -3.853278E-10 -1.402395E-10  1.423758E-06  8.217343E-09 -2.228983E-12 -8.112351E-13  8.217342E-09  0.000000E+00  0.000000E+00  0.000000E+00  0.000000E+00  0.000000E+00  0.000000E+00  0.000000E+00  0.000000E+00  1.606671E+00 -3.776159E-04 -1.374492E-04  1.606671E+00                                                                                                                                                                                                                                                                                                                                                                                                                                                                                              
  1.975000E+03  1.250000E+02 -5.225000E+03  1.423800E-06 -1.786300E-10 -1.349259E-10  1.423800E-06  8.217583E-09 -1.033310E-12 -7.804972E-13  8.217583E-09  0.000000E+00  0.000000E+00  0.000000E+00  0.000000E+00  0.000000E+00  0.000000E+00  0.000000E+00  0.000000E+00  1.606704E+00 -1.750554E-04 -1.322407E-04  1.606704E+00                                                                                                                                                                                                                                                                                                                                                                                                                                                                                              
  1.250000E+02  1.250000E+02 -4.975000E+03  2.288389E-06  1.449043E-10 -9.957721E-11  2.288389E-06  1.310670E-08  8.310946E-13 -5.711224E-13  1.310670E-08  0.000000E+00  0.000000E+00  0.000000E+00  0.000000E+00  0.000000E+00  0.000000E+00  0.000000E+00  0.000000E+00  2.395652E+00  1.438473E-04 -9.491109E-05  2.395652E+00                                                                                                                                                                                                                                                                                                                                                                                                                                                                                              
  3.750000E+02  1.250000E+02 -4.975000E+03  2.288223E-06  2.236893E-10 -1.293739E-10  2.288223E-06  1.310490E-08  1.282964E-12 -7.420202E-13  1.310490E-08  0.000000E+00  0.000000E+00  0.000000E+00  0.000000E+00  0.000000E+00  0.000000E+00  0.000000E+00  0.000000E+00  2.397531E+00  2.216322E-04 -1.238454E-04  2.397531E+00                                                                                                                                                                                                                                                                                                                                                                                                                                                                                              
  6.250000E+02  1.250000E+02 -4.975000E+03  2.287833E-06  4.790549E-12 -1.435833E-10  2.287833E-06  1.310228E-08  2.747618E-14 -8.235174E-13  1.310228E-08  0.000000E+00  0.000000E+00  0.000000E+00  0.000000E+00  0.000000E+00  0.000000E+00  0.000000E+00  0.000000E+00  2.398079E+00  1.108944E-05 -1.382035E-04  2.398079E+00                                                                                                                                                                                                                                                                                                                                                                                                                                                                                              
  8.750000E+02  1.250000E+02 -4.975000E+03  2.287149E-06 -1.285245E-10 -1.274080E-10  2.287149E-06  1.309814E-08 -7.371478E-13 -7.307445E-13  1.309814E-08  0.000000E+00  0.000000E+00  0.000000E+00  0.000000E+00  0.000000E+00  0.000000E+00  0.000000E+00  0.000000E+00  2.397978E+00 -1.150636E-04 -1.247694E-04  2.397978E+00                                                                                                                                                                                                                                                                                                                                                                                                                                                                                              
  1.050000E+03  1.250000E+02 -4.975000E+03  2.286752E-06 -5.241482E-17 -1.147443E-10  2.286752E-06  1.309572E-08 -3.006212E-19 -6.581120E-13  1.309572E-08  0.000000E+00  0.000000E+00  0.000000E+00  0.000000E+00  0.000000E+00  0.000000E+00  0.000000E+00  0.000000E+00  2.397972E+00 -2.208554E-10 -1.167136E-04  2.397972E+00                                                                                                                                                                                                                                                                                                                                                                                                                                                                                              
  1.225000E+03  1.250000E+02 -4.975000E+03  2.287149E-06  1.285244E-10 -1.274081E-10  2.287149E-06  1.309814E-08  7.371472E-13 -7.307449E-13  1.309814E-08  0.000000E+00  0.000000E+00  0.000000E+00  0.000000E+00  0.000000E+00  0.000000E+00  0.000000E+00  0.000000E+00  2.397978E+00  1.150634E-04 -1.247693E-04  2.397978E+00                                                                                                                                                                                                                                                                                                                                                                                                                                                                                              
  1.475000E+03  1.250000E+02 -4.975000E+03  2.287833E-06 -4.790727E-12 -1.435832E-10  2.287833E-06  1.310228E-08 -2.747720E-14 -8.235172E-13  1.310228E-08  0.000000E+00  0.000000E+00  0.000000E+00  0.000000E+00  0.000000E+00  0.000000E+00  0.000000E+00  0.000000E+00  2.398079E+00 -1.108951E-05 -1.382036E-04  2.398079E+00                                                                                                                                                                                                                                                                                                                                                                                                                                                                                              
  1.725000E+03  1.250000E+02 -4.975000E+03  2.288223E-06 -2.236893E-10 -1.293739E-10  2.288223E-06  1.310490E-08 -1.282963E-12 -7.420200E-13  1.310490E-08  0.000000E+00  0.000000E+00  0.000000E+00  0.000000E+00  0.000000E+00  0.000000E+00  0.000000E+00  0.000000E+00  2.397531E+00 -2.216320E-04 -1.238453E-04  2.397531E+00                                                                                                                                                                                                                                                                                                                                                                                                                                                                                              
  1.975000E+03  1.250000E+02 -4.975000E+03  2.288389E-06 -1.449041E-10 -9.957719E-11  2.288389E-06  1.310670E-08 -8.310935E-13 -5.711222E-13  1.310670E-08  0.000000E+00  0.000000E+00  0.000000E+00  0.000000E+00  0.000000E+00  0.000000E+00  0.000000E+00  0.000000E+00  2.395652E+00 -1.438471E-04 -9.491121E-05  2.395652E+00                                                                                                                                                                                                                                                                                                                                                                                                                                                                                              
  1.250000E+02  1.250000E+02 -4.725000E+03  2.274975E-06  1.882888E-10 -3.123340E-11  2.274975E-06  1.261874E-08  1.070688E-12 -1.776317E-13  1.261874E-08  0.000000E+00  0.000000E+00  0.000000E+00  0.000000E+00  0.000000E+00  0.000000E+00  0.000000E+00  0.000000E+00  4.396294E+00  2.207645E-03 -5.581631E-04  4.396294E+00                                                                                                                                                                                                                                                                                                                                                                                                                                                                                              
  3.750000E+02  1.250000E+02 -4.725000E+03  2.262989E-06  9.216858E-11 -1.832597E-10  2.262989E-06  1.253858E-08  5.241959E-13 -1.042024E-12  1.253858E-08  0.000000E+00  0.000000E+00  0.000000E+00  0.000000E+00  0.000000E+00  0.000000E+00  0.000000E+00  0.000000E+00  4.568290E+00  3.043266E-03 -1.010846E-03  4.568289E+00                                                                                                                                                                                                                                                                                                                                                                                                                                                                                              
  6.250000E+02  1.250000E+02 -4.725000E+03  2.256618E-06 -5.935667E-10 -3.001779E-10  2.256617E-06  1.249774E-08 -3.374495E-12 -1.706683E-12  1.249774E-08  0.000000E+00  0.000000E+00  0.000000E+00  0.000000E+00  0.000000E+00  0.000000E+00  0.000000E+00  0.000000E+00  4.652113E+00  9.445772E-04 -1.444606E-03  4.652112E+00                                                                                                                                                                                                                                                                                                                                                                                                                                                                                              
  8.750000E+02  1.250000E+02 -4.725000E+03  2.251067E-06 -9.786271E-10 -3.065882E-10  2.251067E-06  1.246376E-08 -5.563391E-12 -1.743068E-12  1.246376E-08  0.000000E+00  0.000000E+00  0.000000E+00  0.000000E+00  0.000000E+00  0.000000E+00  0.000000E+00  0.000000E+00  4.709582E+00  2.097447E-04 -1.958200E-03  4.709581E+00                                                                                                                                                                                                                                                                                                                                                                                                                                                                                              
  1.050000E+03  1.250000E+02 -4.725000E+03  2.245609E-06  1.639351E-16 -2.128080E-10  2.245609E-06  1.243218E-08  9.320907E-19 -1.209910E-12  1.243218E-08  0.000000E+00  0.000000E+00  0.000000E+00  0.000000E+00  0.000000E+00  0.000000E+00  0.000000E+00  0.000000E+00  4.742649E+00 -1.342363E-09 -2.920756E-03  4.742649E+00                                                                                                                                                                                                                                                                                                                                                                                                                                                                                              
  1.225000E+03  1.250000E+02 -4.725000E+03  2.251067E-06  9.786272E-10 -3.065887E-10  2.251067E-06  1.246376E-08  5.563392E-12 -1.743071E-12  1.246376E-08  0.000000E+00  0.000000E+00  0.000000E+00  0.000000E+00  0.000000E+00  0.000000E+00  0.000000E+00  0.000000E+00  4.709582E+00 -2.097455E-04 -1.958197E-03  4.709581E+00                                                                                                                                                                                                                                                                                                                                                                                                                                                                                              
  1.475000E+03  1.250000E+02 -4.725000E+03  2.256618E-06  5.935663E-10 -3.001777E-10  2.256617E-06  1.249774E-08  3.374493E-12 -1.706682E-12  1.249774E-08  0.000000E+00  0.000000E+00  0.000000E+00  0.000000E+00  0.000000E+00  0.000000E+00  0.000000E+00  0.000000E+00  4.652113E+00 -9.445748E-04 -1.444606E-03  4.652112E+00                                                                                                                                                                                                                                                                                                                                                                                                                                                                                              
  1.725000E+03  1.250000E+02 -4.725000E+03  2.262989E-06 -9.216799E-11 -1.832594E-10  2.262989E-06  1.253858E-08 -5.241925E-13 -1.042022E-12  1.253858E-08  0.000000E+00  0.000000E+00  0.000000E+00  0.000000E+00  0.000000E+00  0.000000E+00  0.000000E+00  0.000000E+00  4.568290E+00 -3.043268E-03 -1.010848E-03  4.568289E+00                                                                                                                                                                                                                                                                                                                                                                                                                                                                                              