Title="TOUGHREACT V3.30-OMP flowvector.tec: Liq & Gas Fluxes (kg/s/m^2), Pore Velocities (m/s), & Heat Fluxes (J/s/m2)"                                                                                                                                                                                                                                                                                                                                                                                                                                                                                                                                                                                                                                                                                                         
Variables= "X(m)"     "Y(m)"      "Z(m)"     "FluxLiq"   "FluxLiq_X"   "FluxLiq_Y"   "FluxLiq_Z"   "PorVelLiq"  "PorVelLiqX"  "PorVelLiqY"  "PorVelLiqZ"     "FluxGas"   "FluxGas_X"   "FluxGas_Y"   "FluxGas_Z"   "PorVelGas"  "PorVelGasX"  "PorVelGasY"  "PorVelGasZ"    "HeatFlux"  "HeatFlux_X"  "HeatFlux_Y"  "HeatFlux_Z"                                                                                                                                                                                                                                                                                                                                                                                                                                                                                                
Zone T= "1.00000000E+07 sec" I=     9 J=    10 K=    24 F=Point
  1.250000E+02  1.250000E+02 -5.425000E+03  3.841699E-07 -8.961297E-15  7.986025E-16  3.841699E-07  2.199603E-09 -5.152403E-17  4.591658E-18  2.199603E-09  0.000000E+00  0.000000E+00  0.000000E+00  0.000000E+00  0.000000E+00  0.000000E+00  0.000000E+00  0.000000E+00  4.908752E-01 -9.565656E-09  9.601051E-10  4.908752E-01                                                                                                                                                                                                                                                                                                                                                                                                                                                                                              
  3.750000E+02  1.250000E+02 -5.425000E+03  3.841699E-07 -8.164265E-15 -1.446989E-15  3.841699E-07  2.199604E-09 -4.694140E-17 -8.319632E-18  2.199604E-09  0.000000E+00  0.000000E+00  0.000000E+00  0.000000E+00  0.000000E+00  0.000000E+00  0.000000E+00  0.000000E+00  4.908752E-01 -8.986670E-09 -1.602126E-09  4.908752E-01                                                                                                                                                                                                                                                                                                                                                                                                                                                                                              
  6.250000E+02  1.250000E+02 -5.425000E+03  3.841700E-07  1.422070E-14  1.091661E-14  3.841700E-07  2.199604E-09  8.176359E-17  6.276634E-17  2.199604E-09  0.000000E+00  0.000000E+00  0.000000E+00  0.000000E+00  0.000000E+00  0.000000E+00  0.000000E+00  0.000000E+00  4.908753E-01  1.446842E-08  1.158289E-08  4.908753E-01                                                                                                                                                                                                                                                                                                                                                                                                                                                                                              
  8.750000E+02  1.250000E+02 -5.425000E+03  3.841700E-07  1.588747E-14  8.641206E-15  3.841700E-07  2.199604E-09  9.134688E-17  4.968362E-17  2.199604E-09  0.000000E+00  0.000000E+00  0.000000E+00  0.000000E+00  0.000000E+00  0.000000E+00  0.000000E+00  0.000000E+00  4.908753E-01  1.641424E-08  9.158878E-09  4.908753E-01                                                                                                                                                                                                                                                                                                                                                                                                                                                                                              
  1.050000E+03  1.250000E+02 -5.425000E+03  3.841700E-07 -2.715052E-15  3.796553E-15  3.841700E-07  2.199604E-09 -1.561051E-17  2.182872E-17  2.199604E-09  0.000000E+00  0.000000E+00  0.000000E+00  0.000000E+00  0.000000E+00  0.000000E+00  0.000000E+00  0.000000E+00  4.908754E-01 -2.788618E-09  4.037473E-09  4.908754E-01                                                                                                                                                                                                                                                                                                                                                                                                                                                                                              
  1.225000E+03  1.250000E+02 -5.425000E+03  3.841700E-07 -1.523450E-14  8.276129E-16  3.841700E-07  2.199604E-09 -8.759251E-17  4.758457E-18  2.199604E-09  0.000000E+00  0.000000E+00  0.000000E+00  0.000000E+00  0.000000E+00  0.000000E+00  0.000000E+00  0.000000E+00  4.908754E-01 -1.563520E-08  7.737188E-10  4.908754E-01                                                                                                                                                                                                                                                                                                                                                                                                                                                                                              
  1.475000E+03  1.250000E+02 -5.425000E+03  3.841700E-07 -1.322680E-14  1.177135E-14  3.841700E-07  2.199604E-09 -7.604902E-17  6.768078E-17  2.199604E-09  0.000000E+00  0.000000E+00  0.000000E+00  0.000000E+00  0.000000E+00  0.000000E+00  0.000000E+00  0.000000E+00  4.908753E-01 -1.343092E-08  1.243674E-08  4.908753E-01                                                                                                                                                                                                                                                                                                                                                                                                                                                                                              
  1.725000E+03  1.250000E+02 -5.425000E+03  3.841699E-07 -4.994154E-15  6.376308E-15  3.841699E-07  2.199604E-09 -2.871448E-17  3.666133E-17  2.199604E-09  0.000000E+00  0.000000E+00  0.000000E+00  0.000000E+00  0.000000E+00  0.000000E+00  0.000000E+00  0.000000E+00  4.908752E-01 -4.929308E-09  6.766339E-09  4.908752E-01                                                                                                                                                                                                                                                                                                                                                                                                                                                                                              
  1.975000E+03  1.250000E+02 -5.425000E+03  3.841699E-07 -1.822997E-15  3.654732E-15  3.841699E-07  2.199604E-09 -1.048154E-17  2.101331E-17  2.199604E-09  0.000000E+00  0.000000E+00  0.000000E+00  0.000000E+00  0.000000E+00  0.000000E+00  0.000000E+00  0.000000E+00  4.908752E-01 -1.820172E-09  3.932316E-09  4.908752E-01                                                                                                                                                                                                                                                                                                                                                                                                                                                                                              
  1.250000E+02  1.250000E+02 -5.225000E+03  9.950925E-07  2.299971E-14  6.724896E-16  9.950925E-07  5.664952E-09  1.311178E-16  3.833761E-18  5.664952E-09  0.000000E+00  0.000000E+00  0.000000E+00  0.000000E+00  0.000000E+00  0.000000E+00  0.000000E+00  0.000000E+00  1.191017E+00  2.259864E-08  6.643963E-10  1.191017E+00                                                                                                                                                                                                                                                                                                                                                                                                                                                                                              
  3.750000E+02  1.250000E+02 -5.225000E+03  9.950928E-07  6.957084E-14 -2.202149E-17  9.950928E-07  5.664954E-09  3.966128E-16 -1.255412E-19  5.664954E-09  0.000000E+00  0.000000E+00  0.000000E+00  0.000000E+00  0.000000E+00  0.000000E+00  0.000000E+00  0.000000E+00  1.191017E+00  6.835206E-08 -2.236703E-11  1.191017E+00                                                                                                                                                                                                                                                                                                                                                                                                                                                                                              
  6.250000E+02  1.250000E+02 -5.225000E+03  9.950934E-07  1.053882E-13  1.665243E-15  9.950934E-07  5.664957E-09  6.008022E-16  9.493300E-18  5.664957E-09  0.000000E+00  0.000000E+00  0.000000E+00  0.000000E+00  0.000000E+00  0.000000E+00  0.000000E+00  0.000000E+00  1.191018E+00  1.035609E-07  1.639608E-09  1.191018E+00                                                                                                                                                                                                                                                                                                                                                                                                                                                                                              
  8.750000E+02  1.250000E+02 -5.225000E+03  9.950941E-07  7.218001E-14  1.079142E-15  9.950941E-07  5.664961E-09  4.114873E-16  6.152025E-18  5.664961E-09  0.000000E+00  0.000000E+00  0.000000E+00  0.000000E+00  0.000000E+00  0.000000E+00  0.000000E+00  0.000000E+00  1.191018E+00  7.093723E-08  1.064231E-09  1.191018E+00                                                                                                                                                                                                                                                                                                                                                                                                                                                                                              
  1.050000E+03  1.250000E+02 -5.225000E+03  9.950942E-07 -7.811658E-16  6.779481E-16  9.950942E-07  5.664962E-09 -4.453308E-18  3.864879E-18  5.664962E-09  0.000000E+00  0.000000E+00  0.000000E+00  0.000000E+00  0.000000E+00  0.000000E+00  0.000000E+00  0.000000E+00  1.191018E+00 -7.696197E-10  6.619830E-10  1.191018E+00                                                                                                                                                                                                                                                                                                                                                                                                                                                                                              
  1.225000E+03  1.250000E+02 -5.225000E+03  9.950941E-07 -7.222657E-14  1.323362E-16  9.950941E-07  5.664961E-09 -4.117527E-16  7.544288E-19  5.664961E-09  0.000000E+00  0.000000E+00  0.000000E+00  0.000000E+00  0.000000E+00  0.000000E+00  0.000000E+00  0.000000E+00  1.191018E+00 -7.097627E-08  1.114481E-10  1.191018E+00                                                                                                                                                                                                                                                                                                                                                                                                                                                                                              
  1.475000E+03  1.250000E+02 -5.225000E+03  9.950934E-07 -1.054300E-13  1.511774E-15  9.950934E-07  5.664957E-09 -6.010407E-16  8.618394E-18  5.664957E-09  0.000000E+00  0.000000E+00  0.000000E+00  0.000000E+00  0.000000E+00  0.000000E+00  0.000000E+00  0.000000E+00  1.191018E+00 -1.036058E-07  1.496872E-09  1.191018E+00                                                                                                                                                                                                                                                                                                                                                                                                                                                                                              
  1.725000E+03  1.250000E+02 -5.225000E+03  9.950928E-07 -7.226570E-14  1.040775E-15  9.950928E-07  5.664954E-09 -4.119758E-16  5.933298E-18  5.664954E-09  0.000000E+00  0.000000E+00  0.000000E+00  0.000000E+00  0.000000E+00  0.000000E+00  0.000000E+00  0.000000E+00  1.191017E+00 -7.101393E-08  1.025818E-09  1.191017E+00                                                                                                                                                                                                                                                                                                                                                                                                                                                                                              
  1.975000E+03  1.250000E+02 -5.225000E+03  9.950925E-07 -2.491812E-14  9.006603E-16  9.950925E-07  5.664952E-09 -1.420544E-16  5.134528E-18  5.664952E-09  0.000000E+00  0.000000E+00  0.000000E+00  0.000000E+00  0.000000E+00  0.000000E+00  0.000000E+00  0.000000E+00  1.191017E+00 -2.448503E-08  8.793597E-10  1.191017E+00                                                                                                                                                                                                                                                                                                                                                                                                                                                                                              
  1.250000E+02  1.250000E+02 -4.975000E+03  2.774687E-06  2.946403E-13  8.806469E-15  2.774687E-06  1.562523E-08  1.663227E-15  4.971199E-17  1.562523E-08  0.000000E+00  0.000000E+00  0.000000E+00  0.000000E+00  0.000000E+00  0.000000E+00  0.000000E+00  0.000000E+00  2.830069E+00  2.764254E-07  8.343604E-09  2.830069E+00                                                                                                                                                                                                                                                                                                                                                                                                                                                                                              
  3.750000E+02  1.250000E+02 -4.975000E+03  2.774690E-06  8.597207E-13  1.216624E-15  2.774690E-06  1.562525E-08  4.853071E-15  6.867771E-18  1.562525E-08  0.000000E+00  0.000000E+00  0.000000E+00  0.000000E+00  0.000000E+00  0.000000E+00  0.000000E+00  0.000000E+00  2.830071E+00  8.066015E-07  1.141258E-09  2.830071E+00                                                                                                                                                                                                                                                                                                                                                                                                                                                                                              
  6.250000E+02  1.250000E+02 -4.975000E+03  2.774695E-06  1.248266E-12  2.073490E-15  2.774695E-06  1.562528E-08  7.046385E-15  1.170473E-17  1.562528E-08  0.000000E+00  0.000000E+00  0.000000E+00  0.000000E+00  0.000000E+00  0.000000E+00  0.000000E+00  0.000000E+00  2.830076E+00  1.171232E-06  2.089164E-09  2.830076E+00                                                                                                                                                                                                                                                                                                                                                                                                                                                                                              
  8.750000E+02  1.250000E+02 -4.975000E+03  2.774700E-06  7.688724E-13 -1.593291E-15  2.774700E-06  1.562531E-08  4.340239E-15 -8.994030E-18  1.562531E-08  0.000000E+00  0.000000E+00  0.000000E+00  0.000000E+00  0.000000E+00  0.000000E+00  0.000000E+00  0.000000E+00  2.830081E+00  7.213006E-07 -1.561421E-09  2.830081E+00                                                                                                                                                                                                                                                                                                                                                                                                                                                                                              
  1.050000E+03  1.250000E+02 -4.975000E+03  2.774699E-06 -4.918844E-15  4.623635E-15  2.774699E-06  1.562530E-08 -2.776658E-17  2.610014E-17  1.562530E-08  0.000000E+00  0.000000E+00  0.000000E+00  0.000000E+00  0.000000E+00  0.000000E+00  0.000000E+00  0.000000E+00  2.830079E+00 -4.782839E-09  4.433264E-09  2.830079E+00                                                                                                                                                                                                                                                                                                                                                                                                                                                                                              
  1.225000E+03  1.250000E+02 -4.975000E+03  2.774700E-06 -7.720946E-13  4.293034E-15  2.774700E-06  1.562531E-08 -4.358427E-15  2.423392E-17  1.562531E-08  0.000000E+00  0.000000E+00  0.000000E+00  0.000000E+00  0.000000E+00  0.000000E+00  0.000000E+00  0.000000E+00  2.830081E+00 -7.244342E-07  4.049927E-09  2.830081E+00                                                                                                                                                                                                                                                                                                                                                                                                                                                                                              
  1.475000E+03  1.250000E+02 -4.975000E+03  2.774695E-06 -1.248631E-12 -2.147790E-15  2.774695E-06  1.562528E-08 -7.048444E-15 -1.212414E-17  1.562528E-08  0.000000E+00  0.000000E+00  0.000000E+00  0.000000E+00  0.000000E+00  0.000000E+00  0.000000E+00  0.000000E+00  2.830076E+00 -1.171502E-06 -1.963416E-09  2.830076E+00                                                                                                                                                                                                                                                                                                                                                                                                                                                                                              
  1.725000E+03  1.250000E+02 -4.975000E+03  2.774690E-06 -8.670923E-13  1.044623E-15  2.774690E-06  1.562525E-08 -4.894684E-15  5.896833E-18  1.562525E-08  0.000000E+00  0.000000E+00  0.000000E+00  0.000000E+00  0.000000E+00  0.000000E+00  0.000000E+00  0.000000E+00  2.830071E+00 -8.133951E-07  1.063264E-09  2.830071E+00                                                                                                                                                                                                                                                                                                                                                                                                                                                                                              
  1.975000E+03  1.250000E+02 -4.975000E+03  2.774687E-06 -2.999504E-13  7.093015E-15  2.774687E-06  1.562523E-08 -1.693202E-15  4.003964E-17  1.562523E-08  0.000000E+00  0.000000E+00  0.000000E+00  0.000000E+00  0.000000E+00  0.000000E+00  0.000000E+00  0.000000E+00  2.830069E+00 -2.812994E-07  6.584407E-09  2.830069E+00                                                                                                                                                                                                                                                                                                                                                                                                                                                                                              
  1.250000E+02  1.250000E+02 -4.725000E+03  1.504445E-05  2.506222E-12  6.039205E-14  1.504445E-05  8.430824E-08  1.406370E-14  3.388908E-16  8.430824E-08  0.000000E+00  0.000000E+00  0.000000E+00  0.000000E+00  0.000000E+00  0.000000E+00  0.000000E+00  0.000000E+00  1.373077E+01  2.237236E-06  5.619793E-08  1.373077E+01                                                                                                                                                                                                                                                                                                                                                                                                                                                                                              
  3.750000E+02  1.250000E+02 -4.725000E+03  1.504446E-05  7.300131E-12  7.316400E-15  1.504446E-05  8.430829E-08  4.096478E-14  4.105607E-17  8.430829E-08  0.000000E+00  0.000000E+00  0.000000E+00  0.000000E+00  0.000000E+00  0.000000E+00  0.000000E+00  0.000000E+00  1.373078E+01  6.518452E-06  7.687660E-09  1.373078E+01                                                                                                                                                                                                                                                                                                                                                                                                                                                                                              
  6.250000E+02  1.250000E+02 -4.725000E+03  1.504447E-05  1.016158E-11 -1.773190E-14  1.504447E-05  8.430839E-08  5.702183E-14 -9.950277E-17  8.430839E-08  0.000000E+00  0.000000E+00  0.000000E+00  0.000000E+00  0.000000E+00  0.000000E+00  0.000000E+00  0.000000E+00  1.373079E+01  9.066033E-06 -1.652115E-08  1.373079E+01                                                                                                                                                                                                                                                                                                                                                                                                                                                                                              
  8.750000E+02  1.250000E+02 -4.725000E+03  1.504448E-05  3.301676E-12 -1.101798E-14  1.504448E-05  8.430859E-08  1.852740E-14 -6.182756E-17  8.430859E-08  0.000000E+00  0.000000E+00  0.000000E+00  0.000000E+00  0.000000E+00  0.000000E+00  0.000000E+00  0.000000E+00  1.373075E+01  2.875056E-06 -1.192291E-08  1.373075E+01                                                                                                                                                                                                                                                                                                                                                                                                                                                                                              
  1.050000E+03  1.250000E+02 -4.725000E+03  1.504444E-05 -3.341892E-14  3.469503E-14  1.504444E-05  8.430897E-08 -1.875307E-16  1.946916E-16  8.430897E-08  0.000000E+00  0.000000E+00  0.000000E+00  0.000000E+00  0.000000E+00  0.000000E+00  0.000000E+00  0.000000E+00  1.373048E+01 -3.146455E-08  3.364318E-08  1.373048E+01                                                                                                                                                                                                                                                                                                                                                                                                                                                                                              
  1.225000E+03  1.250000E+02 -4.725000E+03  1.504448E-05 -3.311356E-12  3.654356E-14  1.504448E-05  8.430859E-08 -1.858172E-14  2.050647E-16  8.430859E-08  0.000000E+00  0.000000E+00  0.000000E+00  0.000000E+00  0.000000E+00  0.000000E+00  0.000000E+00  0.000000E+00  1.373075E+01 -2.884609E-06  3.432630E-08  1.373075E+01                                                                                                                                                                                                                                                                                                                                                                                                                                                                                              
  1.475000E+03  1.250000E+02 -4.725000E+03  1.504447E-05 -1.014605E-11 -3.722567E-14  1.504447E-05  8.430839E-08 -5.693468E-14 -2.088923E-16  8.430839E-08  0.000000E+00  0.000000E+00  0.000000E+00  0.000000E+00  0.000000E+00  0.000000E+00  0.000000E+00  0.000000E+00  1.373079E+01 -9.049201E-06 -3.488177E-08  1.373079E+01                                                                                                                                                                                                                                                                                                                                                                                                                                                                                              
  1.725000E+03  1.250000E+02 -4.725000E+03  1.504446E-05 -7.388270E-12 -1.259289E-14  1.504446E-05  8.430829E-08 -4.145938E-14 -7.066517E-17  8.430829E-08  0.000000E+00  0.000000E+00  0.000000E+00  0.000000E+00  0.000000E+00  0.000000E+00  0.000000E+00  0.000000E+00  1.373078E+01 -6.600100E-06 -1.260533E-08  1.373078E+01                                                                                                                                                                                                                                                                                                                                                                                                                                                                                              