Title="TOUGHREACT V3.30-OMP flowvector.tec: Liq & Gas Fluxes (kg/s/m^2), Pore Velocities (m/s), & Heat Fluxes (J/s/m2)"                                                                                                                                                                                                                                                                                                                                                                                                                                                                                                                                                                                                                                                                                                         
Variables= "X(m)"     "Y(m)"      "Z(m)"     "FluxLiq"   "FluxLiq_X"   "FluxLiq_Y"   "FluxLiq_Z"   "PorVelLiq"  "PorVelLiqX"  "PorVelLiqY"  "PorVelLiqZ"     "FluxGas"   "FluxGas_X"   "FluxGas_Y"   "FluxGas_Z"   "PorVelGas"  "PorVelGasX"  "PorVelGasY"  "PorVelGasZ"    "HeatFlux"  "HeatFlux_X"  "HeatFlux_Y"  "HeatFlux_Z"                                                                                                                                                                                                                                                                                                                                                                                                                                                                                                
Zone T= "1.00000000E+06 sec" I=     9 J=    10 K=    24 F=Point
  1.250000E+02  1.250000E+02 -5.425000E+03  4.864502E-07 -1.239684E-15 -2.618493E-15  4.864502E-07  2.784721E-09 -7.126302E-18 -1.505236E-17  2.784721E-09  0.000000E+00  0.000000E+00  0.000000E+00  0.000000E+00  0.000000E+00  0.000000E+00  0.000000E+00  0.000000E+00  5.951108E-01 -1.300870E-09 -2.732847E-09  5.951108E-01                                                                                                                                                                                                                                                                                                                                                                                                                                                                                              
  3.750000E+02  1.250000E+02 -5.425000E+03  4.864502E-07 -3.639152E-15  8.563503E-16  4.864502E-07  2.784721E-09 -2.091960E-17  4.922716E-18  2.784721E-09  0.000000E+00  0.000000E+00  0.000000E+00  0.000000E+00  0.000000E+00  0.000000E+00  0.000000E+00  0.000000E+00  5.951108E-01 -3.797491E-09  8.849214E-10  5.951108E-01                                                                                                                                                                                                                                                                                                                                                                                                                                                                                              
  6.250000E+02  1.250000E+02 -5.425000E+03  4.864502E-07  1.608855E-15  1.201012E-15  4.864502E-07  2.784721E-09  9.248478E-18  6.903999E-18  2.784721E-09  0.000000E+00  0.000000E+00  0.000000E+00  0.000000E+00  0.000000E+00  0.000000E+00  0.000000E+00  0.000000E+00  5.951108E-01  1.677690E-09  1.235357E-09  5.951108E-01                                                                                                                                                                                                                                                                                                                                                                                                                                                                                              
  8.750000E+02  1.250000E+02 -5.425000E+03  4.864502E-07  4.865643E-15 -2.513087E-15  4.864502E-07  2.784721E-09  2.797007E-17 -1.444644E-17  2.784721E-09  0.000000E+00  0.000000E+00  0.000000E+00  0.000000E+00  0.000000E+00  0.000000E+00  0.000000E+00  0.000000E+00  5.951108E-01  5.061104E-09 -2.624106E-09  5.951108E-01                                                                                                                                                                                                                                                                                                                                                                                                                                                                                              
  1.050000E+03  1.250000E+02 -5.425000E+03  4.864502E-07 -4.969180E-16 -2.207258E-15  4.864502E-07  2.784721E-09 -2.856525E-18 -1.268838E-17  2.784721E-09  0.000000E+00  0.000000E+00  0.000000E+00  0.000000E+00  0.000000E+00  0.000000E+00  0.000000E+00  0.000000E+00  5.951108E-01 -5.329926E-10 -2.299917E-09  5.951108E-01                                                                                                                                                                                                                                                                                                                                                                                                                                                                                              
  1.225000E+03  1.250000E+02 -5.425000E+03  4.864502E-07  7.671516E-16  8.549512E-16  4.864502E-07  2.784721E-09  4.409958E-18  4.914673E-18  2.784721E-09  0.000000E+00  0.000000E+00  0.000000E+00  0.000000E+00  0.000000E+00  0.000000E+00  0.000000E+00  0.000000E+00  5.951108E-01  7.982724E-10  9.119642E-10  5.951108E-01                                                                                                                                                                                                                                                                                                                                                                                                                                                                                              
  1.475000E+03  1.250000E+02 -5.425000E+03  4.864502E-07 -9.959081E-16 -5.010442E-15  4.864502E-07  2.784721E-09 -5.724962E-18 -2.880244E-17  2.784721E-09  0.000000E+00  0.000000E+00  0.000000E+00  0.000000E+00  0.000000E+00  0.000000E+00  0.000000E+00  0.000000E+00  5.951108E-01 -1.034337E-09 -5.222125E-09  5.951108E-01                                                                                                                                                                                                                                                                                                                                                                                                                                                                                              
  1.725000E+03  1.250000E+02 -5.425000E+03  4.864502E-07 -2.372674E-15  1.481245E-15  4.864502E-07  2.784721E-09 -1.363928E-17  8.514913E-18  2.784721E-09  0.000000E+00  0.000000E+00  0.000000E+00  0.000000E+00  0.000000E+00  0.000000E+00  0.000000E+00  0.000000E+00  5.951108E-01 -2.469043E-09  1.554790E-09  5.951108E-01                                                                                                                                                                                                                                                                                                                                                                                                                                                                                              
  1.975000E+03  1.250000E+02 -5.425000E+03  4.864502E-07  7.446236E-16  1.156855E-15  4.864502E-07  2.784721E-09  4.280457E-18  6.650162E-18  2.784721E-09  0.000000E+00  0.000000E+00  0.000000E+00  0.000000E+00  0.000000E+00  0.000000E+00  0.000000E+00  0.000000E+00  5.951108E-01  7.833533E-10  1.211714E-09  5.951108E-01                                                                                                                                                                                                                                                                                                                                                                                                                                                                                              
  1.250000E+02  1.250000E+02 -5.225000E+03  9.562181E-07  2.852093E-16 -7.139362E-17  9.562181E-07  5.449242E-09  1.625896E-18 -4.069945E-19  5.449242E-09  0.000000E+00  0.000000E+00  0.000000E+00  0.000000E+00  0.000000E+00  0.000000E+00  0.000000E+00  0.000000E+00  1.156551E+00  2.821719E-10 -7.145070E-11  1.156551E+00                                                                                                                                                                                                                                                                                                                                                                                                                                                                                              
  3.750000E+02  1.250000E+02 -5.225000E+03  9.562182E-07  4.635008E-16  5.426823E-17  9.562182E-07  5.449242E-09  2.642285E-18  3.093676E-19  5.449242E-09  0.000000E+00  0.000000E+00  0.000000E+00  0.000000E+00  0.000000E+00  0.000000E+00  0.000000E+00  0.000000E+00  1.156551E+00  4.512002E-10  5.473606E-11  1.156551E+00                                                                                                                                                                                                                                                                                                                                                                                                                                                                                              
  6.250000E+02  1.250000E+02 -5.225000E+03  9.562182E-07  8.532885E-16  9.306932E-17  9.562182E-07  5.449243E-09  4.864352E-18  5.305615E-19  5.449243E-09  0.000000E+00  0.000000E+00  0.000000E+00  0.000000E+00  0.000000E+00  0.000000E+00  0.000000E+00  0.000000E+00  1.156551E+00  8.321934E-10  9.372496E-11  1.156551E+00                                                                                                                                                                                                                                                                                                                                                                                                                                                                                              
  8.750000E+02  1.250000E+02 -5.225000E+03  9.562183E-07  1.852425E-15  1.718658E-16  9.562183E-07  5.449243E-09  1.056015E-17  9.797578E-19  5.449243E-09  0.000000E+00  0.000000E+00  0.000000E+00  0.000000E+00  0.000000E+00  0.000000E+00  0.000000E+00  0.000000E+00  1.156552E+00  1.830637E-09  1.733875E-10  1.156552E+00                                                                                                                                                                                                                                                                                                                                                                                                                                                                                              
  1.050000E+03  1.250000E+02 -5.225000E+03  9.562183E-07  2.885018E-16 -2.842222E-16  9.562183E-07  5.449243E-09  1.644666E-18 -1.620269E-18  5.449243E-09  0.000000E+00  0.000000E+00  0.000000E+00  0.000000E+00  0.000000E+00  0.000000E+00  0.000000E+00  0.000000E+00  1.156552E+00  2.904959E-10 -2.860880E-10  1.156552E+00                                                                                                                                                                                                                                                                                                                                                                                                                                                                                              
  1.225000E+03  1.250000E+02 -5.225000E+03  9.562183E-07 -1.757011E-15 -3.183447E-16  9.562183E-07  5.449243E-09 -1.001622E-17 -1.814792E-18  5.449243E-09  0.000000E+00  0.000000E+00  0.000000E+00  0.000000E+00  0.000000E+00  0.000000E+00  0.000000E+00  0.000000E+00  1.156552E+00 -1.735710E-09 -3.213344E-10  1.156552E+00                                                                                                                                                                                                                                                                                                                                                                                                                                                                                              
  1.475000E+03  1.250000E+02 -5.225000E+03  9.562182E-07 -1.201255E-15  1.980721E-16  9.562182E-07  5.449242E-09 -6.848008E-18  1.129152E-18  5.449242E-09  0.000000E+00  0.000000E+00  0.000000E+00  0.000000E+00  0.000000E+00  0.000000E+00  0.000000E+00  0.000000E+00  1.156551E+00 -1.182717E-09  2.013367E-10  1.156551E+00                                                                                                                                                                                                                                                                                                                                                                                                                                                                                              
  1.725000E+03  1.250000E+02 -5.225000E+03  9.562182E-07 -4.456944E-16  3.286890E-18  9.562182E-07  5.449242E-09 -2.540776E-18  1.873762E-20  5.449242E-09  0.000000E+00  0.000000E+00  0.000000E+00  0.000000E+00  0.000000E+00  0.000000E+00  0.000000E+00  0.000000E+00  1.156551E+00 -4.317310E-10  2.775294E-12  1.156551E+00                                                                                                                                                                                                                                                                                                                                                                                                                                                                                              
  1.975000E+03  1.250000E+02 -5.225000E+03  9.562181E-07 -1.125242E-16 -6.974524E-17  9.562181E-07  5.449242E-09 -6.414679E-19 -3.975976E-19  5.449242E-09  0.000000E+00  0.000000E+00  0.000000E+00  0.000000E+00  0.000000E+00  0.000000E+00  0.000000E+00  0.000000E+00  1.156551E+00 -1.077483E-10 -7.105197E-11  1.156551E+00                                                                                                                                                                                                                                                                                                                                                                                                                                                                                              
  1.250000E+02  1.250000E+02 -4.975000E+03  1.117771E-06  2.454465E-14 -9.068888E-17  1.117771E-06  6.303970E-09  1.385197E-16 -5.118098E-19  6.303970E-09  0.000000E+00  0.000000E+00  0.000000E+00  0.000000E+00  0.000000E+00  0.000000E+00  0.000000E+00  0.000000E+00  1.269304E+00  2.303040E-08 -8.352992E-11  1.269304E+00                                                                                                                                                                                                                                                                                                                                                                                                                                                                                              
  3.750000E+02  1.250000E+02 -4.975000E+03  1.117773E-06  7.337178E-14  6.820157E-17  1.117773E-06  6.303981E-09  4.140794E-16  3.849009E-19  6.303981E-09  0.000000E+00  0.000000E+00  0.000000E+00  0.000000E+00  0.000000E+00  0.000000E+00  0.000000E+00  0.000000E+00  1.269306E+00  6.884464E-08  6.506640E-11  1.269306E+00                                                                                                                                                                                                                                                                                                                                                                                                                                                                                              
  6.250000E+02  1.250000E+02 -4.975000E+03  1.117776E-06  1.222236E-13  3.268104E-16  1.117776E-06  6.304001E-09  6.897787E-16  1.844380E-18  6.304001E-09  0.000000E+00  0.000000E+00  0.000000E+00  0.000000E+00  0.000000E+00  0.000000E+00  0.000000E+00  0.000000E+00  1.269309E+00  1.146923E-07  3.127824E-10  1.269309E+00                                                                                                                                                                                                                                                                                                                                                                                                                                                                                              
  8.750000E+02  1.250000E+02 -4.975000E+03  1.117782E-06  1.589400E-13  9.722086E-17  1.117782E-06  6.304032E-09  8.969904E-16  5.486736E-19  6.304032E-09  0.000000E+00  0.000000E+00  0.000000E+00  0.000000E+00  0.000000E+00  0.000000E+00  0.000000E+00  0.000000E+00  1.269315E+00  1.491431E-07  8.680232E-11  1.269315E+00                                                                                                                                                                                                                                                                                                                                                                                                                                                                                              
  1.050000E+03  1.250000E+02 -4.975000E+03  1.117786E-06  1.694885E-16 -9.509797E-18  1.117786E-06  6.304057E-09  9.565214E-19 -5.366928E-20  6.304057E-09  0.000000E+00  0.000000E+00  0.000000E+00  0.000000E+00  0.000000E+00  0.000000E+00  0.000000E+00  0.000000E+00  1.269319E+00  1.575499E-10 -9.657864E-12  1.269319E+00                                                                                                                                                                                                                                                                                                                                                                                                                                                                                              
  1.225000E+03  1.250000E+02 -4.975000E+03  1.117782E-06 -1.587724E-13  1.948356E-16  1.117782E-06  6.304032E-09 -8.960446E-16  1.099570E-18  6.304032E-09  0.000000E+00  0.000000E+00  0.000000E+00  0.000000E+00  0.000000E+00  0.000000E+00  0.000000E+00  0.000000E+00  1.269315E+00 -1.489831E-07  1.838523E-10  1.269315E+00                                                                                                                                                                                                                                                                                                                                                                                                                                                                                              
  1.475000E+03  1.250000E+02 -4.975000E+03  1.117776E-06 -1.223006E-13 -6.295678E-17  1.117776E-06  6.304001E-09 -6.902131E-16 -3.553015E-19  6.304001E-09  0.000000E+00  0.000000E+00  0.000000E+00  0.000000E+00  0.000000E+00  0.000000E+00  0.000000E+00  0.000000E+00  1.269309E+00 -1.147603E-07 -6.213727E-11  1.269309E+00                                                                                                                                                                                                                                                                                                                                                                                                                                                                                              
  1.725000E+03  1.250000E+02 -4.975000E+03  1.117773E-06 -7.361661E-14  1.707825E-16  1.117773E-06  6.303981E-09 -4.154611E-16  9.638244E-19  6.303981E-09  0.000000E+00  0.000000E+00  0.000000E+00  0.000000E+00  0.000000E+00  0.000000E+00  0.000000E+00  0.000000E+00  1.269306E+00 -6.907672E-08  1.618281E-10  1.269306E+00                                                                                                                                                                                                                                                                                                                                                                                                                                                                                              
  1.975000E+03  1.250000E+02 -4.975000E+03  1.117771E-06 -2.471442E-14 -2.499444E-17  1.117771E-06  6.303971E-09 -1.394778E-16 -1.410581E-19  6.303971E-09  0.000000E+00  0.000000E+00  0.000000E+00  0.000000E+00  0.000000E+00  0.000000E+00  0.000000E+00  0.000000E+00  1.269304E+00 -2.319204E-08 -2.239242E-11  1.269304E+00                                                                                                                                                                                                                                                                                                                                                                                                                                                                                              
  1.250000E+02  1.250000E+02 -4.725000E+03  1.664242E-05  1.762335E-12  1.772534E-14  1.664242E-05  9.295081E-08  9.854972E-15  9.912002E-17  9.295081E-08  0.000000E+00  0.000000E+00  0.000000E+00  0.000000E+00  0.000000E+00  0.000000E+00  0.000000E+00  0.000000E+00  1.510422E+01  1.575420E-06  1.638739E-08  1.510422E+01                                                                                                                                                                                                                                                                                                                                                                                                                                                                                              
  3.750000E+02  1.250000E+02 -4.725000E+03  1.664244E-05  5.276802E-12 -3.169920E-15  1.664244E-05  9.295089E-08  2.950786E-14 -1.772618E-17  9.295089E-08  0.000000E+00  0.000000E+00  0.000000E+00  0.000000E+00  0.000000E+00  0.000000E+00  0.000000E+00  0.000000E+00  1.510423E+01  4.717536E-06 -2.930132E-09  1.510423E+01                                                                                                                                                                                                                                                                                                                                                                                                                                                                                              
  6.250000E+02  1.250000E+02 -4.725000E+03  1.664247E-05  8.720633E-12 -9.671983E-17  1.664247E-05  9.295105E-08  4.876575E-14 -5.408569E-19  9.295105E-08  0.000000E+00  0.000000E+00  0.000000E+00  0.000000E+00  0.000000E+00  0.000000E+00  0.000000E+00  0.000000E+00  1.510426E+01  7.795431E-06 -3.978066E-11  1.510426E+01                                                                                                                                                                                                                                                                                                                                                                                                                                                                                              
  8.750000E+02  1.250000E+02 -4.725000E+03  1.664251E-05  1.140635E-11  1.739339E-14  1.664251E-05  9.295130E-08  6.378426E-14  9.726379E-17  9.295130E-08  0.000000E+00  0.000000E+00  0.000000E+00  0.000000E+00  0.000000E+00  0.000000E+00  0.000000E+00  0.000000E+00  1.510429E+01  1.019648E-05  1.622537E-08  1.510429E+01                                                                                                                                                                                                                                                                                                                                                                                                                                                                                              
  1.050000E+03  1.250000E+02 -4.725000E+03  1.664253E-05  2.082697E-14 -8.892782E-15  1.664253E-05  9.295156E-08  1.164644E-16 -4.972841E-17  9.295156E-08  0.000000E+00  0.000000E+00  0.000000E+00  0.000000E+00  0.000000E+00  0.000000E+00  0.000000E+00  0.000000E+00  1.510428E+01  1.935093E-08 -8.200001E-09  1.510428E+01                                                                                                                                                                                                                                                                                                                                                                                                                                                                                              
  1.225000E+03  1.250000E+02 -4.725000E+03  1.664251E-05 -1.140590E-11  1.484554E-14  1.664251E-05  9.295130E-08 -6.378173E-14  8.301620E-17  9.295130E-08  0.000000E+00  0.000000E+00  0.000000E+00  0.000000E+00  0.000000E+00  0.000000E+00  0.000000E+00  0.000000E+00  1.510429E+01 -1.019599E-05  1.318684E-08  1.510429E+01                                                                                                                                                                                                                                                                                                                                                                                                                                                                                              
  1.475000E+03  1.250000E+02 -4.725000E+03  1.664247E-05 -8.714845E-12 -1.204119E-15  1.664247E-05  9.295105E-08 -4.873338E-14 -6.733432E-18  9.295105E-08  0.000000E+00  0.000000E+00  0.000000E+00  0.000000E+00  0.000000E+00  0.000000E+00  0.000000E+00  0.000000E+00  1.510426E+01 -7.790261E-06 -8.759644E-10  1.510426E+01                                                                                                                                                                                                                                                                                                                                                                                                                                                                                              
  1.725000E+03  1.250000E+02 -4.725000E+03  1.664244E-05 -5.261706E-12  4.743679E-15  1.664244E-05  9.295089E-08 -2.942344E-14  2.652664E-17  9.295089E-08  0.000000E+00  0.000000E+00  0.000000E+00  0.000000E+00  0.000000E+00  0.000000E+00  0.000000E+00  0.000000E+00  1.510423E+01 -4.703752E-06  4.564797E-09  1.510423E+01                                                                                                                                                                                                                                                                                                                                                                                                                                                                                              