Title="TOUGHREACT V3.30-OMP flowvector.tec: Liq & Gas Fluxes (kg/s/m^2), Pore Velocities (m/s), & Heat Fluxes (J/s/m2)"                                                                                                                                                                                                                                                                                                                                                                                                                                                                                                                                                                                                                                                                                                         
Variables= "X(m)"     "Y(m)"      "Z(m)"     "FluxLiq"   "FluxLiq_X"   "FluxLiq_Y"   "FluxLiq_Z"   "PorVelLiq"  "PorVelLiqX"  "PorVelLiqY"  "PorVelLiqZ"     "FluxGas"   "FluxGas_X"   "FluxGas_Y"   "FluxGas_Z"   "PorVelGas"  "PorVelGasX"  "PorVelGasY"  "PorVelGasZ"    "HeatFlux"  "HeatFlux_X"  "HeatFlux_Y"  "HeatFlux_Z"                                                                                                                                                                                                                                                                                                                                                                                                                                                                                                
Zone T= "1.00000000E+09 sec" I=     9 J=    10 K=    24 F=Point
  1.250000E+02  1.250000E+02 -5.425000E+03  1.867631E-08  6.743404E-10 -6.207113E-10  1.865381E-08  1.092205E-10  3.959470E-12 -3.644574E-12  1.090878E-10  0.000000E+00  0.000000E+00  0.000000E+00  0.000000E+00  0.000000E+00  0.000000E+00  0.000000E+00  0.000000E+00  1.124215E-01  6.827450E-04 -6.284420E-04  1.124177E-01                                                                                                                                                                                                                                                                                                                                                                                                                                                                                              
  3.750000E+02  1.250000E+02 -5.425000E+03  1.917943E-08  1.543281E-09 -6.627532E-10  1.910575E-08  1.121654E-10  9.061566E-12 -3.891435E-12  1.117310E-10  0.000000E+00  0.000000E+00  0.000000E+00  0.000000E+00  0.000000E+00  0.000000E+00  0.000000E+00  0.000000E+00  1.128889E-01  1.562507E-03 -6.710089E-04  1.128761E-01                                                                                                                                                                                                                                                                                                                                                                                                                                                                                              
  6.250000E+02  1.250000E+02 -5.425000E+03  1.967178E-08  1.484222E-09 -7.203427E-10  1.960248E-08  1.150447E-10  8.714813E-12 -4.229588E-12  1.146362E-10  0.000000E+00  0.000000E+00  0.000000E+00  0.000000E+00  0.000000E+00  0.000000E+00  0.000000E+00  0.000000E+00  1.133916E-01  1.502707E-03 -7.293165E-04  1.133793E-01                                                                                                                                                                                                                                                                                                                                                                                                                                                                                              
  8.750000E+02  1.250000E+02 -5.425000E+03  1.995575E-08  7.231677E-10 -7.658855E-10  1.992793E-08  1.167037E-10  4.246184E-12 -4.497006E-12  1.165397E-10  0.000000E+00  0.000000E+00  0.000000E+00  0.000000E+00  0.000000E+00  0.000000E+00  0.000000E+00  0.000000E+00  1.137140E-01  7.321764E-04 -7.754291E-04  1.137090E-01                                                                                                                                                                                                                                                                                                                                                                                                                                                                                              
  1.050000E+03  1.250000E+02 -5.425000E+03  1.998372E-08  3.065140E-17 -7.717973E-10  1.996881E-08  1.168666E-10  1.799736E-19 -4.531718E-12  1.167787E-10  0.000000E+00  0.000000E+00  0.000000E+00  0.000000E+00  0.000000E+00  0.000000E+00  0.000000E+00  0.000000E+00  1.137532E-01  2.671047E-12 -7.814194E-04  1.137505E-01                                                                                                                                                                                                                                                                                                                                                                                                                                                                                              
  1.225000E+03  1.250000E+02 -5.425000E+03  1.995575E-08 -7.231676E-10 -7.658855E-10  1.992793E-08  1.167037E-10 -4.246184E-12 -4.497006E-12  1.165397E-10  0.000000E+00  0.000000E+00  0.000000E+00  0.000000E+00  0.000000E+00  0.000000E+00  0.000000E+00  0.000000E+00  1.137140E-01 -7.321762E-04 -7.754294E-04  1.137090E-01                                                                                                                                                                                                                                                                                                                                                                                                                                                                                              
  1.475000E+03  1.250000E+02 -5.425000E+03  1.967178E-08 -1.484222E-09 -7.203428E-10  1.960248E-08  1.150447E-10 -8.714813E-12 -4.229588E-12  1.146362E-10  0.000000E+00  0.000000E+00  0.000000E+00  0.000000E+00  0.000000E+00  0.000000E+00  0.000000E+00  0.000000E+00  1.133916E-01 -1.502707E-03 -7.293166E-04  1.133793E-01                                                                                                                                                                                                                                                                                                                                                                                                                                                                                              
  1.725000E+03  1.250000E+02 -5.425000E+03  1.917943E-08 -1.543280E-09 -6.627533E-10  1.910575E-08  1.121654E-10 -9.061565E-12 -3.891435E-12  1.117310E-10  0.000000E+00  0.000000E+00  0.000000E+00  0.000000E+00  0.000000E+00  0.000000E+00  0.000000E+00  0.000000E+00  1.128889E-01 -1.562507E-03 -6.710087E-04  1.128761E-01                                                                                                                                                                                                                                                                                                                                                                                                                                                                                              
  1.975000E+03  1.250000E+02 -5.425000E+03  1.867631E-08 -6.743404E-10 -6.207113E-10  1.865381E-08  1.092205E-10 -3.959470E-12 -3.644574E-12  1.090878E-10  0.000000E+00  0.000000E+00  0.000000E+00  0.000000E+00  0.000000E+00  0.000000E+00  0.000000E+00  0.000000E+00  1.124215E-01 -6.827454E-04 -6.284419E-04  1.124177E-01                                                                                                                                                                                                                                                                                                                                                                                                                                                                                              
  1.250000E+02  1.250000E+02 -5.225000E+03  7.683382E-08  1.014328E-09 -8.345627E-10  7.682259E-08  4.458764E-10  5.902462E-12 -4.856381E-12  4.458109E-10  0.000000E+00  0.000000E+00  0.000000E+00  0.000000E+00  0.000000E+00  0.000000E+00  0.000000E+00  0.000000E+00  2.689677E-01  9.938093E-04 -8.172972E-04  2.689647E-01                                                                                                                                                                                                                                                                                                                                                                                                                                                                                              
  3.750000E+02  1.250000E+02 -5.225000E+03  7.892626E-08  2.254366E-09 -9.078918E-10  7.888883E-08  4.580167E-10  1.311837E-11 -5.283102E-12  4.577983E-10  0.000000E+00  0.000000E+00  0.000000E+00  0.000000E+00  0.000000E+00  0.000000E+00  0.000000E+00  0.000000E+00  2.710912E-01  2.208222E-03 -8.892099E-04  2.710808E-01                                                                                                                                                                                                                                                                                                                                                                                                                                                                                              
  6.250000E+02  1.250000E+02 -5.225000E+03  8.103628E-08  2.097552E-09 -1.007346E-09  8.100287E-08  4.702612E-10  1.220589E-11 -5.861851E-12  4.700662E-10  0.000000E+00  0.000000E+00  0.000000E+00  0.000000E+00  0.000000E+00  0.000000E+00  0.000000E+00  0.000000E+00  2.732145E-01  2.054189E-03 -9.867074E-04  2.732050E-01                                                                                                                                                                                                                                                                                                                                                                                                                                                                                              
  8.750000E+02  1.250000E+02 -5.225000E+03  8.238459E-08  1.008930E-09 -1.090561E-09  8.237119E-08  4.780852E-10  5.871091E-12 -6.346104E-12  4.780070E-10  0.000000E+00  0.000000E+00  0.000000E+00  0.000000E+00  0.000000E+00  0.000000E+00  0.000000E+00  0.000000E+00  2.745815E-01  9.881999E-04 -1.068373E-03  2.745776E-01                                                                                                                                                                                                                                                                                                                                                                                                                                                                                              
  1.050000E+03  1.250000E+02 -5.225000E+03  8.256154E-08 -2.206312E-17 -1.102483E-09  8.255418E-08  4.791116E-10 -1.283886E-19 -6.415479E-12  4.790686E-10  0.000000E+00  0.000000E+00  0.000000E+00  0.000000E+00  0.000000E+00  0.000000E+00  0.000000E+00  0.000000E+00  2.747721E-01 -2.928224E-11 -1.080365E-03  2.747700E-01                                                                                                                                                                                                                                                                                                                                                                                                                                                                                              
  1.225000E+03  1.250000E+02 -5.225000E+03  8.238459E-08 -1.008930E-09 -1.090561E-09  8.237119E-08  4.780852E-10 -5.871091E-12 -6.346104E-12  4.780070E-10  0.000000E+00  0.000000E+00  0.000000E+00  0.000000E+00  0.000000E+00  0.000000E+00  0.000000E+00  0.000000E+00  2.745815E-01 -9.881998E-04 -1.068373E-03  2.745776E-01                                                                                                                                                                                                                                                                                                                                                                                                                                                                                              
  1.475000E+03  1.250000E+02 -5.225000E+03  8.103628E-08 -2.097552E-09 -1.007346E-09  8.100287E-08  4.702612E-10 -1.220589E-11 -5.861851E-12  4.700662E-10  0.000000E+00  0.000000E+00  0.000000E+00  0.000000E+00  0.000000E+00  0.000000E+00  0.000000E+00  0.000000E+00  2.732145E-01 -2.054189E-03 -9.867074E-04  2.732050E-01                                                                                                                                                                                                                                                                                                                                                                                                                                                                                              
  1.725000E+03  1.250000E+02 -5.225000E+03  7.892626E-08 -2.254366E-09 -9.078918E-10  7.888883E-08  4.580167E-10 -1.311837E-11 -5.283102E-12  4.577983E-10  0.000000E+00  0.000000E+00  0.000000E+00  0.000000E+00  0.000000E+00  0.000000E+00  0.000000E+00  0.000000E+00  2.710912E-01 -2.208222E-03 -8.892099E-04  2.710808E-01                                                                                                                                                                                                                                                                                                                                                                                                                                                                                              
  1.975000E+03  1.250000E+02 -5.225000E+03  7.683382E-08 -1.014328E-09 -8.345628E-10  7.682259E-08  4.458764E-10 -5.902462E-12 -4.856381E-12  4.458109E-10  0.000000E+00  0.000000E+00  0.000000E+00  0.000000E+00  0.000000E+00  0.000000E+00  0.000000E+00  0.000000E+00  2.689677E-01 -9.938093E-04 -8.172972E-04  2.689647E-01                                                                                                                                                                                                                                                                                                                                                                                                                                                                                              
  1.250000E+02  1.250000E+02 -4.975000E+03  1.421672E-07  2.558884E-09 -1.673218E-09  1.421343E-07  8.160597E-10  1.472090E-11 -9.625793E-12  8.158702E-10  0.000000E+00  0.000000E+00  0.000000E+00  0.000000E+00  0.000000E+00  0.000000E+00  0.000000E+00  0.000000E+00  3.888768E-01  2.470231E-03 -1.586722E-03  3.888657E-01                                                                                                                                                                                                                                                                                                                                                                                                                                                                                              
  3.750000E+02  1.250000E+02 -4.975000E+03  1.483189E-07  5.333221E-09 -1.909041E-09  1.482107E-07  8.511611E-10  3.068128E-11 -1.098244E-11  8.505370E-10  0.000000E+00  0.000000E+00  0.000000E+00  0.000000E+00  0.000000E+00  0.000000E+00  0.000000E+00  0.000000E+00  3.996870E-01  5.101733E-03 -1.820498E-03  3.996503E-01                                                                                                                                                                                                                                                                                                                                                                                                                                                                                              
  6.250000E+02  1.250000E+02 -4.975000E+03  1.535981E-07  4.619108E-09 -2.221430E-09  1.535125E-07  8.813453E-10  2.657315E-11 -1.277961E-11  8.808519E-10  0.000000E+00  0.000000E+00  0.000000E+00  0.000000E+00  0.000000E+00  0.000000E+00  0.000000E+00  0.000000E+00  4.071230E-01  4.378107E-03 -2.126359E-03  4.070939E-01                                                                                                                                                                                                                                                                                                                                                                                                                                                                                              
  8.750000E+02  1.250000E+02 -4.975000E+03  1.569818E-07  2.190911E-09 -2.515943E-09  1.569463E-07  9.006923E-10  1.260408E-11 -1.447395E-11  9.004878E-10  0.000000E+00  0.000000E+00  0.000000E+00  0.000000E+00  0.000000E+00  0.000000E+00  0.000000E+00  0.000000E+00  4.117609E-01  2.087113E-03 -2.421696E-03  4.117485E-01                                                                                                                                                                                                                                                                                                                                                                                                                                                                                              
  1.050000E+03  1.250000E+02 -4.975000E+03  1.575751E-07  6.452574E-17 -2.575234E-09  1.575541E-07  9.040648E-10  3.711958E-19 -1.481506E-11  9.039434E-10  0.000000E+00  0.000000E+00  0.000000E+00  0.000000E+00  0.000000E+00  0.000000E+00  0.000000E+00  0.000000E+00  4.130871E-01 -1.253216E-10 -2.509414E-03  4.130795E-01                                                                                                                                                                                                                                                                                                                                                                                                                                                                                              
  1.225000E+03  1.250000E+02 -4.975000E+03  1.569818E-07 -2.190911E-09 -2.515943E-09  1.569463E-07  9.006923E-10 -1.260408E-11 -1.447395E-11  9.004878E-10  0.000000E+00  0.000000E+00  0.000000E+00  0.000000E+00  0.000000E+00  0.000000E+00  0.000000E+00  0.000000E+00  4.117609E-01 -2.087113E-03 -2.421696E-03  4.117485E-01                                                                                                                                                                                                                                                                                                                                                                                                                                                                                              
  1.475000E+03  1.250000E+02 -4.975000E+03  1.535981E-07 -4.619108E-09 -2.221430E-09  1.535125E-07  8.813453E-10 -2.657315E-11 -1.277961E-11  8.808519E-10  0.000000E+00  0.000000E+00  0.000000E+00  0.000000E+00  0.000000E+00  0.000000E+00  0.000000E+00  0.000000E+00  4.071230E-01 -4.378107E-03 -2.126359E-03  4.070939E-01                                                                                                                                                                                                                                                                                                                                                                                                                                                                                              
  1.725000E+03  1.250000E+02 -4.975000E+03  1.483189E-07 -5.333221E-09 -1.909041E-09  1.482107E-07  8.511611E-10 -3.068128E-11 -1.098244E-11  8.505370E-10  0.000000E+00  0.000000E+00  0.000000E+00  0.000000E+00  0.000000E+00  0.000000E+00  0.000000E+00  0.000000E+00  3.996870E-01 -5.101733E-03 -1.820498E-03  3.996503E-01                                                                                                                                                                                                                                                                                                                                                                                                                                                                                              
  1.975000E+03  1.250000E+02 -4.975000E+03  1.421672E-07 -2.558883E-09 -1.673218E-09  1.421343E-07  8.160597E-10 -1.472090E-11 -9.625793E-12  8.158702E-10  0.000000E+00  0.000000E+00  0.000000E+00  0.000000E+00  0.000000E+00  0.000000E+00  0.000000E+00  0.000000E+00  3.888768E-01 -2.470231E-03 -1.586722E-03  3.888657E-01                                                                                                                                                                                                                                                                                                                                                                                                                                                                                              
  1.250000E+02  1.250000E+02 -4.725000E+03  2.718328E-08  7.386032E-09 -3.560360E-09  2.591719E-08  1.757892E-10  4.177093E-11 -2.014226E-11  1.695621E-10  0.000000E+00  0.000000E+00  0.000000E+00  0.000000E+00  0.000000E+00  0.000000E+00  0.000000E+00  0.000000E+00  2.585278E+00  1.144364E-02 -4.615743E-03  2.585249E+00                                                                                                                                                                                                                                                                                                                                                                                                                                                                                              
  3.750000E+02  1.250000E+02 -4.725000E+03  4.032488E-08  1.383973E-08 -4.439783E-09  3.761444E-08  2.479445E-10  7.825540E-11 -2.510545E-11  2.339280E-10  0.000000E+00  0.000000E+00  0.000000E+00  0.000000E+00  0.000000E+00  0.000000E+00  0.000000E+00  0.000000E+00  2.732769E+00  1.944603E-02 -6.245238E-03  2.732692E+00                                                                                                                                                                                                                                                                                                                                                                                                                                                                                              
  6.250000E+02  1.250000E+02 -4.725000E+03  4.614658E-08  1.065418E-08 -5.536355E-09  4.455720E-08  2.807396E-10  6.022651E-11 -3.129999E-11  2.724111E-10  0.000000E+00  0.000000E+00  0.000000E+00  0.000000E+00  0.000000E+00  0.000000E+00  0.000000E+00  0.000000E+00  2.810015E+00  1.303260E-02 -8.081751E-03  2.809973E+00                                                                                                                                                                                                                                                                                                                                                                                                                                                                                              
  8.750000E+02  1.250000E+02 -4.725000E+03  5.023535E-08  5.312395E-09 -6.779133E-09  4.949154E-08  3.035745E-10  3.002616E-11 -3.832320E-11  2.996452E-10  0.000000E+00  0.000000E+00  0.000000E+00  0.000000E+00  0.000000E+00  0.000000E+00  0.000000E+00  0.000000E+00  2.864599E+00  7.072278E-03 -1.042622E-02  2.864572E+00                                                                                                                                                                                                                                                                                                                                                                                                                                                                                              
  1.050000E+03  1.250000E+02 -4.725000E+03  5.263856E-08  9.621347E-17 -7.383736E-09  5.211812E-08  3.165899E-10  5.434644E-19 -4.174219E-11  3.138260E-10  0.000000E+00  0.000000E+00  0.000000E+00  0.000000E+00  0.000000E+00  0.000000E+00  0.000000E+00  0.000000E+00  2.899393E+00 -1.205735E-09 -1.300028E-02  2.899364E+00                                                                                                                                                                                                                                                                                                                                                                                                                                                                                              
  1.225000E+03  1.250000E+02 -4.725000E+03  5.023535E-08 -5.312395E-09 -6.779133E-09  4.949154E-08  3.035745E-10 -3.002616E-11 -3.832320E-11  2.996452E-10  0.000000E+00  0.000000E+00  0.000000E+00  0.000000E+00  0.000000E+00  0.000000E+00  0.000000E+00  0.000000E+00  2.864599E+00 -7.072279E-03 -1.042622E-02  2.864572E+00                                                                                                                                                                                                                                                                                                                                                                                                                                                                                              
  1.475000E+03  1.250000E+02 -4.725000E+03  4.614658E-08 -1.065418E-08 -5.536355E-09  4.455720E-08  2.807396E-10 -6.022651E-11 -3.129999E-11  2.724111E-10  0.000000E+00  0.000000E+00  0.000000E+00  0.000000E+00  0.000000E+00  0.000000E+00  0.000000E+00  0.000000E+00  2.810015E+00 -1.303260E-02 -8.081752E-03  2.809973E+00                                                                                                                                                                                                                                                                                                                                                                                                                                                                                              
  1.725000E+03  1.250000E+02 -4.725000E+03  4.032488E-08 -1.383973E-08 -4.439783E-09  3.761444E-08  2.479445E-10 -7.825540E-11 -2.510545E-11  2.339280E-10  0.000000E+00  0.000000E+00  0.000000E+00  0.000000E+00  0.000000E+00  0.000000E+00  0.000000E+00  0.000000E+00  2.732769E+00 -1.944604E-02 -6.245240E-03  2.732692E+00                                                                                                                                                                                                                                                                                                                                                                                                                                                                                              