Title="TOUGHREACT V3.30-OMP flowvector.tec: Liq & Gas Fluxes (kg/s/m^2), Pore Velocities (m/s), & Heat Fluxes (J/s/m2)"                                                                                                                                                                                                                                                                                                                                                                                                                                                                                                                                                                                                                                                                                                         
Variables= "X(m)"     "Y(m)"      "Z(m)"     "FluxLiq"   "FluxLiq_X"   "FluxLiq_Y"   "FluxLiq_Z"   "PorVelLiq"  "PorVelLiqX"  "PorVelLiqY"  "PorVelLiqZ"     "FluxGas"   "FluxGas_X"   "FluxGas_Y"   "FluxGas_Z"   "PorVelGas"  "PorVelGasX"  "PorVelGasY"  "PorVelGasZ"    "HeatFlux"  "HeatFlux_X"  "HeatFlux_Y"  "HeatFlux_Z"                                                                                                                                                                                                                                                                                                                                                                                                                                                                                                
Zone T= "1.00000000E+10 sec" I=     9 J=    10 K=    24 F=Point
  1.250000E+02  1.250000E+02 -5.425000E+03  6.655213E-09  2.101580E-09 -3.334349E-09 -5.362587E-09  3.883134E-11  1.229161E-11 -1.950162E-11 -3.124863E-11  0.000000E+00  0.000000E+00  0.000000E+00  0.000000E+00  0.000000E+00  0.000000E+00  0.000000E+00  0.000000E+00  6.154513E-02  2.123595E-03 -3.335261E-03  6.141799E-02                                                                                                                                                                                                                                                                                                                                                                                                                                                                                              
  3.750000E+02  1.250000E+02 -5.425000E+03  7.608858E-09  5.033806E-09 -3.392943E-09 -4.587316E-09  4.444250E-11  2.944152E-11 -1.984437E-11 -2.673077E-11  0.000000E+00  0.000000E+00  0.000000E+00  0.000000E+00  0.000000E+00  0.000000E+00  0.000000E+00  0.000000E+00  6.275482E-02  5.061708E-03 -3.397036E-03  6.245804E-02                                                                                                                                                                                                                                                                                                                                                                                                                                                                                              
  6.250000E+02  1.250000E+02 -5.425000E+03  7.170438E-09  5.126656E-09 -3.469451E-09 -3.618769E-09  4.189878E-11  2.998472E-11 -2.029200E-11 -2.108695E-11  0.000000E+00  0.000000E+00  0.000000E+00  0.000000E+00  0.000000E+00  0.000000E+00  0.000000E+00  0.000000E+00  6.389228E-02  5.133522E-03 -3.477707E-03  6.359069E-02                                                                                                                                                                                                                                                                                                                                                                                                                                                                                              
  8.750000E+02  1.250000E+02 -5.425000E+03  5.273793E-09  2.581554E-09 -3.523140E-09 -2.955665E-09  3.080950E-11  1.509903E-11 -2.060613E-11 -1.722301E-11  0.000000E+00  0.000000E+00  0.000000E+00  0.000000E+00  0.000000E+00  0.000000E+00  0.000000E+00  0.000000E+00  6.449130E-02  2.583926E-03 -3.537514E-03  6.434234E-02                                                                                                                                                                                                                                                                                                                                                                                                                                                                                              
  1.050000E+03  1.250000E+02 -5.425000E+03  4.553030E-09 -1.002520E-14 -3.529339E-09 -2.876430E-09  2.659041E-11 -5.863535E-17 -2.064240E-11 -1.676129E-11  0.000000E+00  0.000000E+00  0.000000E+00  0.000000E+00  0.000000E+00  0.000000E+00  0.000000E+00  0.000000E+00  6.453794E-02 -4.793942E-09 -3.546220E-03  6.444043E-02                                                                                                                                                                                                                                                                                                                                                                                                                                                                                              
  1.225000E+03  1.250000E+02 -5.425000E+03  5.273769E-09 -2.581547E-09 -3.523130E-09 -2.955640E-09  3.080936E-11 -1.509900E-11 -2.060607E-11 -1.722286E-11  0.000000E+00  0.000000E+00  0.000000E+00  0.000000E+00  0.000000E+00  0.000000E+00  0.000000E+00  0.000000E+00  6.449132E-02 -2.583930E-03 -3.537515E-03  6.434236E-02                                                                                                                                                                                                                                                                                                                                                                                                                                                                                              
  1.475000E+03  1.250000E+02 -5.425000E+03  7.170447E-09 -5.126664E-09 -3.469445E-09 -3.618781E-09  4.189883E-11 -2.998477E-11 -2.029196E-11 -2.108702E-11  0.000000E+00  0.000000E+00  0.000000E+00  0.000000E+00  0.000000E+00  0.000000E+00  0.000000E+00  0.000000E+00  6.389229E-02 -5.133542E-03 -3.477706E-03  6.359070E-02                                                                                                                                                                                                                                                                                                                                                                                                                                                                                              
  1.725000E+03  1.250000E+02 -5.425000E+03  7.608856E-09 -5.033814E-09 -3.392928E-09 -4.587313E-09  4.444249E-11 -2.944157E-11 -1.984429E-11 -2.673075E-11  0.000000E+00  0.000000E+00  0.000000E+00  0.000000E+00  0.000000E+00  0.000000E+00  0.000000E+00  0.000000E+00  6.275484E-02 -5.061706E-03 -3.397012E-03  6.245806E-02                                                                                                                                                                                                                                                                                                                                                                                                                                                                                              
  1.975000E+03  1.250000E+02 -5.425000E+03  6.655183E-09 -2.101564E-09 -3.334329E-09 -5.362568E-09  3.883117E-11 -1.229152E-11 -1.950150E-11 -3.124851E-11  0.000000E+00  0.000000E+00  0.000000E+00  0.000000E+00  0.000000E+00  0.000000E+00  0.000000E+00  0.000000E+00  6.154516E-02 -2.123572E-03 -3.335227E-03  6.141802E-02                                                                                                                                                                                                                                                                                                                                                                                                                                                                                              
  1.250000E+02  1.250000E+02 -5.225000E+03  1.877292E-08  2.732053E-09 -3.537253E-09 -1.823310E-08  1.085034E-10  1.587776E-11 -2.055752E-11 -1.053484E-10  0.000000E+00  0.000000E+00  0.000000E+00  0.000000E+00  0.000000E+00  0.000000E+00  0.000000E+00  0.000000E+00  2.040487E-01  2.914904E-03 -3.526355E-03  2.039974E-01                                                                                                                                                                                                                                                                                                                                                                                                                                                                                              
  3.750000E+02  1.250000E+02 -5.225000E+03  1.670413E-08  6.423183E-09 -3.631965E-09 -1.498597E-08  9.662594E-11  3.732900E-11 -2.110751E-11 -8.658864E-11  0.000000E+00  0.000000E+00  0.000000E+00  0.000000E+00  0.000000E+00  0.000000E+00  0.000000E+00  0.000000E+00  2.104116E-01  6.672949E-03 -3.642488E-03  2.102742E-01                                                                                                                                                                                                                                                                                                                                                                                                                                                                                              
  6.250000E+02  1.250000E+02 -5.225000E+03  1.336684E-08  6.399015E-09 -3.752482E-09 -1.111953E-08  7.738052E-11  3.718821E-11 -2.180775E-11 -6.425888E-11  0.000000E+00  0.000000E+00  0.000000E+00  0.000000E+00  0.000000E+00  0.000000E+00  0.000000E+00  0.000000E+00  2.161963E-01  6.485218E-03 -3.789150E-03  2.160658E-01                                                                                                                                                                                                                                                                                                                                                                                                                                                                                              
  8.750000E+02  1.250000E+02 -5.225000E+03  9.883567E-09  3.184128E-09 -3.838770E-09 -8.532881E-09  5.720799E-11  1.850468E-11 -2.230920E-11 -4.932171E-11  0.000000E+00  0.000000E+00  0.000000E+00  0.000000E+00  0.000000E+00  0.000000E+00  0.000000E+00  0.000000E+00  2.197721E-01  3.217025E-03 -3.913474E-03  2.197137E-01                                                                                                                                                                                                                                                                                                                                                                                                                                                                                              
  1.050000E+03  1.250000E+02 -5.225000E+03  9.081130E-09  1.907890E-14 -3.848972E-09 -8.225105E-09  5.254335E-11  1.108777E-16 -2.236848E-11 -4.754423E-11  0.000000E+00  0.000000E+00  0.000000E+00  0.000000E+00  0.000000E+00  0.000000E+00  0.000000E+00  0.000000E+00  2.203015E-01  1.746782E-08 -3.941857E-03  2.202663E-01                                                                                                                                                                                                                                                                                                                                                                                                                                                                                              
  1.225000E+03  1.250000E+02 -5.225000E+03  9.883572E-09 -3.184123E-09 -3.838783E-09 -8.532883E-09  5.720802E-11 -1.850465E-11 -2.230927E-11 -4.932172E-11  0.000000E+00  0.000000E+00  0.000000E+00  0.000000E+00  0.000000E+00  0.000000E+00  0.000000E+00  0.000000E+00  2.197721E-01 -3.217021E-03 -3.913484E-03  2.197137E-01                                                                                                                                                                                                                                                                                                                                                                                                                                                                                              
  1.475000E+03  1.250000E+02 -5.225000E+03  1.336687E-08 -6.399042E-09 -3.752484E-09 -1.111955E-08  7.738069E-11 -3.718837E-11 -2.180776E-11 -6.425899E-11  0.000000E+00  0.000000E+00  0.000000E+00  0.000000E+00  0.000000E+00  0.000000E+00  0.000000E+00  0.000000E+00  2.161963E-01 -6.485239E-03 -3.789156E-03  2.160658E-01                                                                                                                                                                                                                                                                                                                                                                                                                                                                                              
  1.725000E+03  1.250000E+02 -5.225000E+03  1.670412E-08 -6.423164E-09 -3.631985E-09 -1.498597E-08  9.662590E-11 -3.732889E-11 -2.110763E-11 -8.658860E-11  0.000000E+00  0.000000E+00  0.000000E+00  0.000000E+00  0.000000E+00  0.000000E+00  0.000000E+00  0.000000E+00  2.104116E-01 -6.672925E-03 -3.642503E-03  2.102742E-01                                                                                                                                                                                                                                                                                                                                                                                                                                                                                              
  1.975000E+03  1.250000E+02 -5.225000E+03  1.877287E-08 -2.732023E-09 -3.537247E-09 -1.823306E-08  1.085032E-10 -1.587759E-11 -2.055749E-11 -1.053481E-10  0.000000E+00  0.000000E+00  0.000000E+00  0.000000E+00  0.000000E+00  0.000000E+00  0.000000E+00  0.000000E+00  2.040487E-01 -2.914874E-03 -3.526339E-03  2.039974E-01                                                                                                                                                                                                                                                                                                                                                                                                                                                                                              
  1.250000E+02  1.250000E+02 -4.975000E+03  5.660289E-08  5.639658E-09 -4.359543E-09 -5.615225E-08  3.173714E-10  3.219338E-11 -2.489160E-11 -3.147517E-10  0.000000E+00  0.000000E+00  0.000000E+00  0.000000E+00  0.000000E+00  0.000000E+00  0.000000E+00  0.000000E+00  6.431890E-01  8.346869E-03 -4.934987E-03  6.431159E-01                                                                                                                                                                                                                                                                                                                                                                                                                                                                                              
  3.750000E+02  1.250000E+02 -4.975000E+03  4.936940E-08  1.244544E-08 -4.649780E-09 -4.754817E-08  2.767323E-10  7.103241E-11 -2.653997E-11 -2.661406E-10  0.000000E+00  0.000000E+00  0.000000E+00  0.000000E+00  0.000000E+00  0.000000E+00  0.000000E+00  0.000000E+00  6.775404E-01  1.669806E-02 -5.464365E-03  6.773126E-01                                                                                                                                                                                                                                                                                                                                                                                                                                                                                              
  6.250000E+02  1.250000E+02 -4.975000E+03  4.101065E-08  1.153199E-08 -5.001279E-09 -3.903683E-08  2.296265E-10  6.580580E-11 -2.854030E-11 -2.181361E-10  0.000000E+00  0.000000E+00  0.000000E+00  0.000000E+00  0.000000E+00  0.000000E+00  0.000000E+00  0.000000E+00  7.020075E-01  1.386808E-02 -6.092034E-03  7.018441E-01                                                                                                                                                                                                                                                                                                                                                                                                                                                                                              
  8.750000E+02  1.250000E+02 -4.975000E+03  3.446803E-08  5.572044E-09 -5.287823E-09 -3.360114E-08  1.925567E-10  3.179259E-11 -3.017240E-11 -1.875018E-10  0.000000E+00  0.000000E+00  0.000000E+00  0.000000E+00  0.000000E+00  0.000000E+00  0.000000E+00  0.000000E+00  7.165443E-01  6.660551E-03 -6.771605E-03  7.164813E-01                                                                                                                                                                                                                                                                                                                                                                                                                                                                                              
  1.050000E+03  1.250000E+02 -4.975000E+03  3.323792E-08 -2.638049E-14 -5.345694E-09 -3.280523E-08  1.855441E-10 -1.505180E-16 -3.050216E-11 -1.830198E-10  0.000000E+00  0.000000E+00  0.000000E+00  0.000000E+00  0.000000E+00  0.000000E+00  0.000000E+00  0.000000E+00  7.199830E-01 -6.128764E-08 -7.066843E-03  7.199483E-01                                                                                                                                                                                                                                                                                                                                                                                                                                                                                              
  1.225000E+03  1.250000E+02 -4.975000E+03  3.446801E-08 -5.572052E-09 -5.287842E-09 -3.360111E-08  1.925565E-10 -3.179263E-11 -3.017250E-11 -1.875017E-10  0.000000E+00  0.000000E+00  0.000000E+00  0.000000E+00  0.000000E+00  0.000000E+00  0.000000E+00  0.000000E+00  7.165441E-01 -6.660509E-03 -6.771650E-03  7.164812E-01                                                                                                                                                                                                                                                                                                                                                                                                                                                                                              
  1.475000E+03  1.250000E+02 -4.975000E+03  4.101056E-08 -1.153199E-08 -5.001261E-09 -3.903673E-08  2.296260E-10 -6.580578E-11 -2.854020E-11 -2.181356E-10  0.000000E+00  0.000000E+00  0.000000E+00  0.000000E+00  0.000000E+00  0.000000E+00  0.000000E+00  0.000000E+00  7.020078E-01 -1.386810E-02 -6.092105E-03  7.018444E-01                                                                                                                                                                                                                                                                                                                                                                                                                                                                                              
  1.725000E+03  1.250000E+02 -4.975000E+03  4.936951E-08 -1.244540E-08 -4.649806E-09 -4.754829E-08  2.767329E-10 -7.103213E-11 -2.654012E-11 -2.661413E-10  0.000000E+00  0.000000E+00  0.000000E+00  0.000000E+00  0.000000E+00  0.000000E+00  0.000000E+00  0.000000E+00  6.775405E-01 -1.669805E-02 -5.464358E-03  6.773126E-01                                                                                                                                                                                                                                                                                                                                                                                                                                                                                              
  1.975000E+03  1.250000E+02 -4.975000E+03  5.660283E-08 -5.639596E-09 -4.359498E-09 -5.615221E-08  3.173711E-10 -3.219302E-11 -2.489134E-11 -3.147514E-10  0.000000E+00  0.000000E+00  0.000000E+00  0.000000E+00  0.000000E+00  0.000000E+00  0.000000E+00  0.000000E+00  6.431892E-01 -8.346735E-03 -4.934978E-03  6.431161E-01                                                                                                                                                                                                                                                                                                                                                                                                                                                                                              
  1.250000E+02  1.250000E+02 -4.725000E+03  1.700998E-07  1.341894E-08 -5.543088E-09 -1.694791E-07  9.028157E-10  7.259982E-11 -3.003546E-11 -8.993906E-10  0.000000E+00  0.000000E+00  0.000000E+00  0.000000E+00  0.000000E+00  0.000000E+00  0.000000E+00  0.000000E+00  2.194032E+00  3.672099E-02 -1.120283E-02  2.193696E+00                                                                                                                                                                                                                                                                                                                                                                                                                                                                                              
  3.750000E+02  1.250000E+02 -4.725000E+03  1.469313E-07  2.625854E-08 -6.499273E-09 -1.444197E-07  7.785274E-10  1.419327E-10 -3.513697E-11 -7.646735E-10  0.000000E+00  0.000000E+00  0.000000E+00  0.000000E+00  0.000000E+00  0.000000E+00  0.000000E+00  0.000000E+00  2.353285E+00  6.337854E-02 -1.398046E-02  2.352390E+00                                                                                                                                                                                                                                                                                                                                                                                                                                                                                              
  6.250000E+02  1.250000E+02 -4.725000E+03  1.319460E-07  2.112762E-08 -7.585403E-09 -1.300224E-07  6.974952E-10  1.140353E-10 -4.095101E-11 -6.868905E-10  0.000000E+00  0.000000E+00  0.000000E+00  0.000000E+00  0.000000E+00  0.000000E+00  0.000000E+00  0.000000E+00  2.438294E+00  4.267627E-02 -1.705637E-02  2.437861E+00                                                                                                                                                                                                                                                                                                                                                                                                                                                                                              
  8.750000E+02  1.250000E+02 -4.725000E+03  1.217996E-07  1.015258E-08 -8.708780E-09 -1.210629E-07  6.426995E-10  5.475385E-11 -4.698103E-11 -6.386372E-10  0.000000E+00  0.000000E+00  0.000000E+00  0.000000E+00  0.000000E+00  0.000000E+00  0.000000E+00  0.000000E+00  2.489686E+00  2.134667E-02 -2.106984E-02  2.489506E+00                                                                                                                                                                                                                                                                                                                                                                                                                                                                                              
  1.050000E+03  1.250000E+02 -4.725000E+03  1.168668E-07  4.015090E-14 -9.311557E-09 -1.164953E-07  6.166159E-10  2.163810E-16 -5.022655E-11 -6.145669E-10  0.000000E+00  0.000000E+00  0.000000E+00  0.000000E+00  0.000000E+00  0.000000E+00  0.000000E+00  0.000000E+00  2.517778E+00 -1.720862E-07 -2.431274E-02  2.517660E+00                                                                                                                                                                                                                                                                                                                                                                                                                                                                                              
  1.225000E+03  1.250000E+02 -4.725000E+03  1.217995E-07 -1.015243E-08 -8.708691E-09 -1.210629E-07  6.426992E-10 -5.475308E-11 -4.698056E-11 -6.386369E-10  0.000000E+00  0.000000E+00  0.000000E+00  0.000000E+00  0.000000E+00  0.000000E+00  0.000000E+00  0.000000E+00  2.489686E+00 -2.134642E-02 -2.106976E-02  2.489506E+00                                                                                                                                                                                                                                                                                                                                                                                                                                                                                              
  1.475000E+03  1.250000E+02 -4.725000E+03  1.319460E-07 -2.112779E-08 -7.585496E-09 -1.300224E-07  6.974951E-10 -1.140362E-10 -4.095151E-11 -6.868902E-10  0.000000E+00  0.000000E+00  0.000000E+00  0.000000E+00  0.000000E+00  0.000000E+00  0.000000E+00  0.000000E+00  2.438294E+00 -4.267611E-02 -1.705680E-02  2.437861E+00                                                                                                                                                                                                                                                                                                                                                                                                                                                                                              
  1.725000E+03  1.250000E+02 -4.725000E+03  1.469314E-07 -2.625859E-08 -6.499083E-09 -1.444198E-07  7.785279E-10 -1.419330E-10 -3.513594E-11 -7.646739E-10  0.000000E+00  0.000000E+00  0.000000E+00  0.000000E+00  0.000000E+00  0.000000E+00  0.000000E+00  0.000000E+00  2.353285E+00 -6.337867E-02 -1.398051E-02  2.352390E+00                                                                                                                                                                                                                                                                                                                                                                                                                                                                                              