Title="TOUGHREACT V3.30-OMP flowvector.tec: Liq & Gas Fluxes (kg/s/m^2), Pore Velocities (m/s), & Heat Fluxes (J/s/m2)"                                                                                                                                                                                                                                                                                                                                                                                                                                                                                                                                                                                                                                                                                                         
Variables= "X(m)"     "Y(m)"      "Z(m)"     "FluxLiq"   "FluxLiq_X"   "FluxLiq_Y"   "FluxLiq_Z"   "PorVelLiq"  "PorVelLiqX"  "PorVelLiqY"  "PorVelLiqZ"     "FluxGas"   "FluxGas_X"   "FluxGas_Y"   "FluxGas_Z"   "PorVelGas"  "PorVelGasX"  "PorVelGasY"  "PorVelGasZ"    "HeatFlux"  "HeatFlux_X"  "HeatFlux_Y"  "HeatFlux_Z"                                                                                                                                                                                                                                                                                                                                                                                                                                                                                                
Zone T= "5.18400000E+05 sec" I=     9 J=    10 K=    24 F=Point
  1.250000E+02  1.250000E+02 -5.425000E+03  4.946169E-07  3.983798E-16 -3.650733E-17  4.946169E-07  2.831427E-09  2.290040E-18 -2.098581E-19  2.831427E-09  0.000000E+00  0.000000E+00  0.000000E+00  0.000000E+00  0.000000E+00  0.000000E+00  0.000000E+00  0.000000E+00  6.034321E-01  4.105048E-10 -4.035596E-11  6.034321E-01                                                                                                                                                                                                                                                                                                                                                                                                                                                                                              
  3.750000E+02  1.250000E+02 -5.425000E+03  4.946169E-07 -1.624561E-17  3.177658E-17  4.946169E-07  2.831427E-09 -9.338599E-20  1.826639E-19  2.831427E-09  0.000000E+00  0.000000E+00  0.000000E+00  0.000000E+00  0.000000E+00  0.000000E+00  0.000000E+00  0.000000E+00  6.034321E-01 -1.447055E-11  3.312612E-11  6.034321E-01                                                                                                                                                                                                                                                                                                                                                                                                                                                                                              
  6.250000E+02  1.250000E+02 -5.425000E+03  4.946169E-07 -1.714375E-15 -2.419328E-16  4.946169E-07  2.831427E-09 -9.854884E-18 -1.390722E-18  2.831427E-09  0.000000E+00  0.000000E+00  0.000000E+00  0.000000E+00  0.000000E+00  0.000000E+00  0.000000E+00  0.000000E+00  6.034321E-01 -1.779809E-09 -2.618526E-10  6.034321E-01                                                                                                                                                                                                                                                                                                                                                                                                                                                                                              
  8.750000E+02  1.250000E+02 -5.425000E+03  4.946169E-07  7.860529E-16  1.752533E-15  4.946169E-07  2.831427E-09  4.518533E-18  1.007423E-17  2.831427E-09  0.000000E+00  0.000000E+00  0.000000E+00  0.000000E+00  0.000000E+00  0.000000E+00  0.000000E+00  0.000000E+00  6.034321E-01  8.126977E-10  1.821989E-09  6.034321E-01                                                                                                                                                                                                                                                                                                                                                                                                                                                                                              
  1.050000E+03  1.250000E+02 -5.425000E+03  4.946169E-07  2.173501E-15 -3.210169E-16  4.946169E-07  2.831427E-09  1.249412E-17 -1.845328E-18  2.831427E-09  0.000000E+00  0.000000E+00  0.000000E+00  0.000000E+00  0.000000E+00  0.000000E+00  0.000000E+00  0.000000E+00  6.034321E-01  2.255238E-09 -3.327718E-10  6.034321E-01                                                                                                                                                                                                                                                                                                                                                                                                                                                                                              
  1.225000E+03  1.250000E+02 -5.425000E+03  4.946169E-07 -6.483060E-16  5.138404E-16  4.946169E-07  2.831427E-09 -3.726711E-18  2.953751E-18  2.831427E-09  0.000000E+00  0.000000E+00  0.000000E+00  0.000000E+00  0.000000E+00  0.000000E+00  0.000000E+00  0.000000E+00  6.034321E-01 -6.747779E-10  5.403051E-10  6.034321E-01                                                                                                                                                                                                                                                                                                                                                                                                                                                                                              
  1.475000E+03  1.250000E+02 -5.425000E+03  4.946169E-07  2.248115E-16  2.410973E-16  4.946169E-07  2.831427E-09  1.292302E-18  1.385920E-18  2.831427E-09  0.000000E+00  0.000000E+00  0.000000E+00  0.000000E+00  0.000000E+00  0.000000E+00  0.000000E+00  0.000000E+00  6.034321E-01  2.343808E-10  2.441848E-10  6.034321E-01                                                                                                                                                                                                                                                                                                                                                                                                                                                                                              
  1.725000E+03  1.250000E+02 -5.425000E+03  4.946169E-07  5.704283E-16  2.316660E-16  4.946169E-07  2.831427E-09  3.279040E-18  1.331705E-18  2.831427E-09  0.000000E+00  0.000000E+00  0.000000E+00  0.000000E+00  0.000000E+00  0.000000E+00  0.000000E+00  0.000000E+00  6.034321E-01  5.969985E-10  2.484008E-10  6.034321E-01                                                                                                                                                                                                                                                                                                                                                                                                                                                                                              
  1.975000E+03  1.250000E+02 -5.425000E+03  4.946169E-07 -3.903879E-16  1.311435E-15  4.946169E-07  2.831427E-09 -2.244099E-18  7.538633E-18  2.831427E-09  0.000000E+00  0.000000E+00  0.000000E+00  0.000000E+00  0.000000E+00  0.000000E+00  0.000000E+00  0.000000E+00  6.034321E-01 -3.998672E-10  1.364435E-09  6.034321E-01                                                                                                                                                                                                                                                                                                                                                                                                                                                                                              
  1.250000E+02  1.250000E+02 -5.225000E+03  9.630886E-07 -1.503283E-17  3.375725E-18  9.630886E-07  5.488596E-09 -8.569791E-20  1.924405E-20  5.488596E-09  0.000000E+00  0.000000E+00  0.000000E+00  0.000000E+00  0.000000E+00  0.000000E+00  0.000000E+00  0.000000E+00  1.163599E+00 -1.642786E-11  3.644150E-12  1.163599E+00                                                                                                                                                                                                                                                                                                                                                                                                                                                                                              
  3.750000E+02  1.250000E+02 -5.225000E+03  9.630886E-07  1.328970E-16  1.168968E-16  9.630886E-07  5.488596E-09  7.576077E-19  6.663955E-19  5.488596E-09  0.000000E+00  0.000000E+00  0.000000E+00  0.000000E+00  0.000000E+00  0.000000E+00  0.000000E+00  0.000000E+00  1.163599E+00  1.298776E-10  1.178116E-10  1.163599E+00                                                                                                                                                                                                                                                                                                                                                                                                                                                                                              
  6.250000E+02  1.250000E+02 -5.225000E+03  9.630887E-07  3.739454E-16 -4.000530E-17  9.630887E-07  5.488596E-09  2.131756E-18 -2.280588E-19  5.488596E-09  0.000000E+00  0.000000E+00  0.000000E+00  0.000000E+00  0.000000E+00  0.000000E+00  0.000000E+00  0.000000E+00  1.163599E+00  3.698041E-10 -4.033518E-11  1.163599E+00                                                                                                                                                                                                                                                                                                                                                                                                                                                                                              
  8.750000E+02  1.250000E+02 -5.225000E+03  9.630887E-07  4.080989E-16  5.854218E-17  9.630887E-07  5.488596E-09  2.326456E-18  3.337323E-19  5.488596E-09  0.000000E+00  0.000000E+00  0.000000E+00  0.000000E+00  0.000000E+00  0.000000E+00  0.000000E+00  0.000000E+00  1.163599E+00  4.018261E-10  5.888051E-11  1.163599E+00                                                                                                                                                                                                                                                                                                                                                                                                                                                                                              
  1.050000E+03  1.250000E+02 -5.225000E+03  9.630887E-07  2.553650E-17 -3.069738E-17  9.630887E-07  5.488597E-09  1.455763E-19 -1.749970E-19  5.488597E-09  0.000000E+00  0.000000E+00  0.000000E+00  0.000000E+00  0.000000E+00  0.000000E+00  0.000000E+00  0.000000E+00  1.163599E+00  2.567333E-11 -3.097911E-11  1.163599E+00                                                                                                                                                                                                                                                                                                                                                                                                                                                                                              
  1.225000E+03  1.250000E+02 -5.225000E+03  9.630887E-07 -4.343137E-16 -1.275767E-16  9.630887E-07  5.488596E-09 -2.475899E-18 -7.272787E-19  5.488596E-09  0.000000E+00  0.000000E+00  0.000000E+00  0.000000E+00  0.000000E+00  0.000000E+00  0.000000E+00  0.000000E+00  1.163599E+00 -4.282411E-10 -1.285162E-10  1.163599E+00                                                                                                                                                                                                                                                                                                                                                                                                                                                                                              
  1.475000E+03  1.250000E+02 -5.225000E+03  9.630887E-07 -3.053353E-16  8.716674E-17  9.630887E-07  5.488596E-09 -1.740630E-18  4.969128E-19  5.488596E-09  0.000000E+00  0.000000E+00  0.000000E+00  0.000000E+00  0.000000E+00  0.000000E+00  0.000000E+00  0.000000E+00  1.163599E+00 -3.006925E-10  8.794264E-11  1.163599E+00                                                                                                                                                                                                                                                                                                                                                                                                                                                                                              
  1.725000E+03  1.250000E+02 -5.225000E+03  9.630886E-07 -1.107771E-16 -1.464690E-16  9.630886E-07  5.488596E-09 -6.315086E-19 -8.349778E-19  5.488596E-09  0.000000E+00  0.000000E+00  0.000000E+00  0.000000E+00  0.000000E+00  0.000000E+00  0.000000E+00  0.000000E+00  1.163599E+00 -1.074427E-10 -1.474722E-10  1.163599E+00                                                                                                                                                                                                                                                                                                                                                                                                                                                                                              
  1.975000E+03  1.250000E+02 -5.225000E+03  9.630886E-07 -8.320866E-17 -4.218669E-17  9.630886E-07  5.488596E-09 -4.743489E-19 -2.404943E-19  5.488596E-09  0.000000E+00  0.000000E+00  0.000000E+00  0.000000E+00  0.000000E+00  0.000000E+00  0.000000E+00  0.000000E+00  1.163599E+00 -8.233719E-11 -4.275131E-11  1.163599E+00                                                                                                                                                                                                                                                                                                                                                                                                                                                                                              
  1.250000E+02  1.250000E+02 -4.975000E+03  1.004728E-06  1.168425E-14  1.710801E-17  1.004728E-06  5.668915E-09  6.594079E-17  9.655017E-20  5.668915E-09  0.000000E+00  0.000000E+00  0.000000E+00  0.000000E+00  0.000000E+00  0.000000E+00  0.000000E+00  0.000000E+00  1.163177E+00  1.096336E-08  1.698110E-11  1.163177E+00                                                                                                                                                                                                                                                                                                                                                                                                                                                                                              
  3.750000E+02  1.250000E+02 -4.975000E+03  1.004729E-06  3.509900E-14  1.615704E-17  1.004729E-06  5.668925E-09  1.980834E-16  9.118326E-20  5.668925E-09  0.000000E+00  0.000000E+00  0.000000E+00  0.000000E+00  0.000000E+00  0.000000E+00  0.000000E+00  0.000000E+00  1.163179E+00  3.293442E-08  1.518137E-11  1.163179E+00                                                                                                                                                                                                                                                                                                                                                                                                                                                                                              
  6.250000E+02  1.250000E+02 -4.975000E+03  1.004733E-06  5.852759E-14  2.359196E-17  1.004733E-06  5.668944E-09  3.303042E-16  1.331427E-19  5.668944E-09  0.000000E+00  0.000000E+00  0.000000E+00  0.000000E+00  0.000000E+00  0.000000E+00  0.000000E+00  0.000000E+00  1.163182E+00  5.491992E-08  2.335246E-11  1.163182E+00                                                                                                                                                                                                                                                                                                                                                                                                                                                                                              
  8.750000E+02  1.250000E+02 -4.975000E+03  1.004738E-06  7.870862E-14 -2.527298E-17  1.004738E-06  5.668973E-09  4.441971E-16 -1.426297E-19  5.668973E-09  0.000000E+00  0.000000E+00  0.000000E+00  0.000000E+00  0.000000E+00  0.000000E+00  0.000000E+00  0.000000E+00  1.163187E+00  7.385432E-08 -2.493766E-11  1.163187E+00                                                                                                                                                                                                                                                                                                                                                                                                                                                                                              
  1.050000E+03  1.250000E+02 -4.975000E+03  1.004742E-06  8.140269E-17 -2.241044E-17  1.004742E-06  5.668999E-09  4.594013E-19 -1.264748E-19  5.668999E-09  0.000000E+00  0.000000E+00  0.000000E+00  0.000000E+00  0.000000E+00  0.000000E+00  0.000000E+00  0.000000E+00  1.163191E+00  7.767080E-11 -2.131688E-11  1.163191E+00                                                                                                                                                                                                                                                                                                                                                                                                                                                                                              
  1.225000E+03  1.250000E+02 -4.975000E+03  1.004738E-06 -7.874243E-14 -5.326442E-17  1.004738E-06  5.668973E-09 -4.443879E-16 -3.006012E-19  5.668973E-09  0.000000E+00  0.000000E+00  0.000000E+00  0.000000E+00  0.000000E+00  0.000000E+00  0.000000E+00  0.000000E+00  1.163187E+00 -7.388669E-08 -5.098660E-11  1.163187E+00                                                                                                                                                                                                                                                                                                                                                                                                                                                                                              
  1.475000E+03  1.250000E+02 -4.975000E+03  1.004733E-06 -5.854416E-14 -7.675072E-18  1.004733E-06  5.668944E-09 -3.303977E-16 -4.331476E-20  5.668944E-09  0.000000E+00  0.000000E+00  0.000000E+00  0.000000E+00  0.000000E+00  0.000000E+00  0.000000E+00  0.000000E+00  1.163182E+00 -5.493503E-08 -7.392476E-12  1.163182E+00                                                                                                                                                                                                                                                                                                                                                                                                                                                                                              
  1.725000E+03  1.250000E+02 -4.975000E+03  1.004729E-06 -3.504318E-14 -6.661655E-17  1.004729E-06  5.668925E-09 -1.977684E-16 -3.759548E-19  5.668925E-09  0.000000E+00  0.000000E+00  0.000000E+00  0.000000E+00  0.000000E+00  0.000000E+00  0.000000E+00  0.000000E+00  1.163179E+00 -3.288039E-08 -6.348800E-11  1.163179E+00                                                                                                                                                                                                                                                                                                                                                                                                                                                                                              
  1.975000E+03  1.250000E+02 -4.975000E+03  1.004728E-06 -1.172707E-14 -1.846244E-17  1.004728E-06  5.668915E-09 -6.618246E-17 -1.041940E-19  5.668915E-09  0.000000E+00  0.000000E+00  0.000000E+00  0.000000E+00  0.000000E+00  0.000000E+00  0.000000E+00  0.000000E+00  1.163177E+00 -1.100427E-08 -1.768472E-11  1.163177E+00                                                                                                                                                                                                                                                                                                                                                                                                                                                                                              
  1.250000E+02  1.250000E+02 -4.725000E+03  1.658190E-05  1.664844E-12 -1.156959E-15  1.658190E-05  9.258078E-08  9.306804E-15 -6.467629E-18  9.258078E-08  0.000000E+00  0.000000E+00  0.000000E+00  0.000000E+00  0.000000E+00  0.000000E+00  0.000000E+00  0.000000E+00  1.504619E+01  1.488483E-06 -9.617149E-10  1.504619E+01                                                                                                                                                                                                                                                                                                                                                                                                                                                                                              
  3.750000E+02  1.250000E+02 -4.725000E+03  1.658193E-05  4.996067E-12  3.031937E-15  1.658193E-05  9.258095E-08  2.792899E-14  1.694912E-17  9.258095E-08  0.000000E+00  0.000000E+00  0.000000E+00  0.000000E+00  0.000000E+00  0.000000E+00  0.000000E+00  0.000000E+00  1.504621E+01  4.466707E-06  2.743957E-09  1.504621E+01                                                                                                                                                                                                                                                                                                                                                                                                                                                                                              
  6.250000E+02  1.250000E+02 -4.725000E+03  1.658199E-05  8.307109E-12 -8.754153E-15  1.658199E-05  9.258129E-08  4.643836E-14 -4.893743E-17  9.258129E-08  0.000000E+00  0.000000E+00  0.000000E+00  0.000000E+00  0.000000E+00  0.000000E+00  0.000000E+00  0.000000E+00  1.504627E+01  7.426690E-06 -7.968723E-09  1.504627E+01                                                                                                                                                                                                                                                                                                                                                                                                                                                                                              
  8.750000E+02  1.250000E+02 -4.725000E+03  1.658208E-05  1.127420E-11  4.783432E-15  1.658208E-05  9.258180E-08  6.302498E-14  2.674032E-17  9.258180E-08  0.000000E+00  0.000000E+00  0.000000E+00  0.000000E+00  0.000000E+00  0.000000E+00  0.000000E+00  0.000000E+00  1.504635E+01  1.007936E-05  4.411341E-09  1.504635E+01                                                                                                                                                                                                                                                                                                                                                                                                                                                                                              
  1.050000E+03  1.250000E+02 -4.725000E+03  1.658215E-05  1.422002E-14 -1.238549E-15  1.658215E-05  9.258229E-08  7.949269E-17 -6.923731E-18  9.258229E-08  0.000000E+00  0.000000E+00  0.000000E+00  0.000000E+00  0.000000E+00  0.000000E+00  0.000000E+00  0.000000E+00  1.504640E+01  1.288917E-08 -1.090687E-09  1.504640E+01                                                                                                                                                                                                                                                                                                                                                                                                                                                                                              
  1.225000E+03  1.250000E+02 -4.725000E+03  1.658208E-05 -1.127838E-11 -3.900556E-15  1.658208E-05  9.258180E-08 -6.304837E-14 -2.180487E-17  9.258180E-08  0.000000E+00  0.000000E+00  0.000000E+00  0.000000E+00  0.000000E+00  0.000000E+00  0.000000E+00  0.000000E+00  1.504635E+01 -1.008334E-05 -3.600016E-09  1.504635E+01                                                                                                                                                                                                                                                                                                                                                                                                                                                                                              
  1.475000E+03  1.250000E+02 -4.725000E+03  1.658199E-05 -8.317645E-12  3.056714E-15  1.658199E-05  9.258129E-08 -4.649726E-14  1.708763E-17  9.258129E-08  0.000000E+00  0.000000E+00  0.000000E+00  0.000000E+00  0.000000E+00  0.000000E+00  0.000000E+00  0.000000E+00  1.504627E+01 -7.436248E-06  2.978195E-09  1.504627E+01                                                                                                                                                                                                                                                                                                                                                                                                                                                                                              
  1.725000E+03  1.250000E+02 -4.725000E+03  1.658193E-05 -4.991922E-12 -2.672816E-15  1.658193E-05  9.258095E-08 -2.790582E-14 -1.494157E-17  9.258095E-08  0.000000E+00  0.000000E+00  0.000000E+00  0.000000E+00  0.000000E+00  0.000000E+00  0.000000E+00  0.000000E+00  1.504621E+01 -4.462777E-06 -2.463054E-09  1.504621E+01                                                                                                                                                                                                                                                                                                                                                                                                                                                                                              