Title="TOUGHREACT V3.30-OMP: Aqueous Total & Species Concentrations in mol/kg h2o, Surface & Exchanged Species in mol/kg h2o, Dry blocks in mol/L medium"                                                                                                                                                                                                                                                                                                                                                                                                                                                                                                                                                                                                                                                                       
Variables= "X(m)"   "Y(m)"   "Z(m)"   "P(bar)"     "T(C)"   "SatGas"   "SatLiq"     "aH2O"       "pH"        "t_na+"        "t_cl-"      "t_hco3-"       "t_ca+2"      "t_so4-2"       "t_mg+2"       "t_ba+2"       "t_al+3"     "t_h4sio4"                                                                                                                                                                                                                                                                                                                                                                                                                                                                                                                                                                                    
Zone T= "3.16887907E+03 yr" I=      9J=     10K=     23F=Point 
     125.0000     125.0000   -5425.0000  5.53161E+02  168.512  0.00000E+00  1.00000E+00  1.00001  7.2729  9.2529E-11  9.2536E-11  3.0315E-04  2.4777E-04  9.9341E-11  3.5984E-05  9.8969E-11  2.9240E-04  2.6284E-04                                                                                                                                                                                                                                                                                                                                                                                                                                                                                                                                                                                                            
     375.0000     125.0000   -5425.0000  5.53166E+02  168.395  0.00000E+00  1.00000E+00  1.00001  7.2744  9.2544E-11  9.2551E-11  3.0275E-04  2.4770E-04  1.0084E-10  3.5995E-05  1.0048E-10  2.9197E-04  2.6259E-04                                                                                                                                                                                                                                                                                                                                                                                                                                                                                                                                                                                                            
     625.0000     125.0000   -5425.0000  5.53172E+02  168.240  0.00000E+00  1.00000E+00  1.00001  7.2763  9.2571E-11  9.2578E-11  3.0230E-04  2.4760E-04  1.0218E-10  3.6008E-05  1.0184E-10  2.9136E-04  2.6222E-04                                                                                                                                                                                                                                                                                                                                                                                                                                                                                                                                                                                                            
     875.0000     125.0000   -5425.0000  5.53177E+02  168.127  0.00000E+00  1.00000E+00  1.00001  7.2775  9.2601E-11  9.2608E-11  3.0211E-04  2.4753E-04  1.0307E-10  3.6016E-05  1.0274E-10  2.9087E-04  2.6188E-04                                                                                                                                                                                                                                                                                                                                                                                                                                                                                                                                                                                                            
    1050.0000     125.0000   -5425.0000  5.53178E+02  168.113  0.00000E+00  1.00000E+00  1.00001  7.2773  9.2617E-11  9.2624E-11  3.0239E-04  2.4751E-04  1.0335E-10  3.6012E-05  1.0300E-10  2.9074E-04  2.6170E-04                                                                                                                                                                                                                                                                                                                                                                                                                                                                                                                                                                                                            
    1225.0000     125.0000   -5425.0000  5.53177E+02  168.127  0.00000E+00  1.00000E+00  1.00001  7.2775  9.2601E-11  9.2608E-11  3.0211E-04  2.4753E-04  1.0307E-10  3.6016E-05  1.0274E-10  2.9087E-04  2.6188E-04                                                                                                                                                                                                                                                                                                                                                                                                                                                                                                                                                                                                            
    1475.0000     125.0000   -5425.0000  5.53172E+02  168.240  0.00000E+00  1.00000E+00  1.00001  7.2763  9.2571E-11  9.2578E-11  3.0230E-04  2.4760E-04  1.0218E-10  3.6008E-05  1.0184E-10  2.9136E-04  2.6222E-04                                                                                                                                                                                                                                                                                                                                                                                                                                                                                                                                                                                                            
    1725.0000     125.0000   -5425.0000  5.53166E+02  168.395  0.00000E+00  1.00000E+00  1.00001  7.2744  9.2544E-11  9.2551E-11  3.0275E-04  2.4770E-04  1.0084E-10  3.5995E-05  1.0048E-10  2.9197E-04  2.6259E-04                                                                                                                                                                                                                                                                                                                                                                                                                                                                                                                                                                                                            
    1975.0000     125.0000   -5425.0000  5.53161E+02  168.512  0.00000E+00  1.00000E+00  1.00001  7.2729  9.2529E-11  9.2536E-11  3.0315E-04  2.4777E-04  9.9342E-11  3.5984E-05  9.8969E-11  2.9240E-04  2.6284E-04                                                                                                                                                                                                                                                                                                                                                                                                                                                                                                                                                                                                            
     125.0000     125.0000   -5225.0000  5.34939E+02  164.725  0.00000E+00  1.00000E+00  1.00001  7.3259  9.2985E-11  9.2986E-11  2.8763E-04  2.4562E-04  7.5813E-10  3.6398E-05  7.5952E-10  2.7807E-04  2.5719E-04                                                                                                                                                                                                                                                                                                                                                                                                                                                                                                                                                                                                            
     375.0000     125.0000   -5225.0000  5.34943E+02  164.576  0.00000E+00  1.00000E+00  1.00001  7.3278  9.3021E-11  9.3021E-11  2.8727E-04  2.4552E-04  8.9489E-10  3.6411E-05  8.9654E-10  2.7747E-04  2.5686E-04                                                                                                                                                                                                                                                                                                                                                                                                                                                                                                                                                                                                            
     625.0000     125.0000   -5225.0000  5.34948E+02  164.389  0.00000E+00  1.00000E+00  1.00001  7.3300  9.3069E-11  9.3069E-11  2.8689E-04  2.4540E-04  9.9901E-10  3.6427E-05  1.0008E-09  2.7669E-04  2.5641E-04                                                                                                                                                                                                                                                                                                                                                                                                                                                                                                                                                                                                            
     875.0000     125.0000   -5225.0000  5.34952E+02  164.256  0.00000E+00  1.00000E+00  1.00001  7.3316  9.3104E-11  9.3105E-11  2.8667E-04  2.4531E-04  1.0632E-09  3.6437E-05  1.0651E-09  2.7613E-04  2.5607E-04                                                                                                                                                                                                                                                                                                                                                                                                                                                                                                                                                                                                            
    1050.0000     125.0000   -5225.0000  5.34952E+02  164.240  0.00000E+00  1.00000E+00  1.00001  7.3317  9.3110E-11  9.3111E-11  2.8666E-04  2.4530E-04  1.0841E-09  3.6438E-05  1.0861E-09  2.7606E-04  2.5601E-04                                                                                                                                                                                                                                                                                                                                                                                                                                                                                                                                                                                                            
    1225.0000     125.0000   -5225.0000  5.34952E+02  164.256  0.00000E+00  1.00000E+00  1.00001  7.3316  9.3104E-11  9.3105E-11  2.8667E-04  2.4531E-04  1.0632E-09  3.6437E-05  1.0651E-09  2.7613E-04  2.5607E-04                                                                                                                                                                                                                                                                                                                                                                                                                                                                                                                                                                                                            
    1475.0000     125.0000   -5225.0000  5.34948E+02  164.389  0.00000E+00  1.00000E+00  1.00001  7.3300  9.3069E-11  9.3069E-11  2.8689E-04  2.4540E-04  9.9903E-10  3.6427E-05  1.0009E-09  2.7669E-04  2.5641E-04                                                                                                                                                                                                                                                                                                                                                                                                                                                                                                                                                                                                            
    1725.0000     125.0000   -5225.0000  5.34943E+02  164.576  0.00000E+00  1.00000E+00  1.00001  7.3278  9.3021E-11  9.3021E-11  2.8727E-04  2.4552E-04  8.9490E-10  3.6411E-05  8.9655E-10  2.7747E-04  2.5686E-04                                                                                                                                                                                                                                                                                                                                                                                                                                                                                                                                                                                                            
    1975.0000     125.0000   -5225.0000  5.34939E+02  164.725  0.00000E+00  1.00000E+00  1.00001  7.3259  9.2985E-11  9.2986E-11  2.8763E-04  2.4562E-04  7.5813E-10  3.6398E-05  7.5953E-10  2.7807E-04  2.5719E-04                                                                                                                                                                                                                                                                                                                                                                                                                                                                                                                                                                                                            
     125.0000     125.0000   -4975.0000  5.12072E+02  152.778  0.00000E+00  1.00000E+00  1.00001  7.4834  8.5367E-11  8.5369E-11  2.7161E-04  2.2927E-04  3.9949E-08  3.6265E-05  3.9888E-08  2.5269E-04  2.1361E-04                                                                                                                                                                                                                                                                                                                                                                                                                                                                                                                                                                                                            
     375.0000     125.0000   -4975.0000  5.12076E+02  152.498  0.00000E+00  1.00000E+00  1.00001  7.4877  8.5127E-11  8.5129E-11  2.7115E-04  2.2877E-04  4.5893E-08  3.6248E-05  4.5823E-08  2.5220E-04  2.1280E-04                                                                                                                                                                                                                                                                                                                                                                                                                                                                                                                                                                                                            
     625.0000     125.0000   -4975.0000  5.12080E+02  152.197  0.00000E+00  1.00000E+00  1.00001  7.4922  8.4872E-11  8.4874E-11  2.7070E-04  2.2827E-04  4.9614E-08  3.6236E-05  4.9539E-08  2.5174E-04  2.1181E-04                                                                                                                                                                                                                                                                                                                                                                                                                                                                                                                                                                                                            
     875.0000     125.0000   -4975.0000  5.12083E+02  152.001  0.00000E+00  1.00000E+00  1.00001  7.4951  8.4714E-11  8.4716E-11  2.7041E-04  2.2796E-04  5.1785E-08  3.6229E-05  5.1707E-08  2.5142E-04  2.1116E-04                                                                                                                                                                                                                                                                                                                                                                                                                                                                                                                                                                                                            
    1050.0000     125.0000   -4975.0000  5.12084E+02  151.975  0.00000E+00  1.00000E+00  1.00001  7.4956  8.4695E-11  8.4697E-11  2.7036E-04  2.2791E-04  5.2731E-08  3.6227E-05  5.2652E-08  2.5136E-04  2.1112E-04                                                                                                                                                                                                                                                                                                                                                                                                                                                                                                                                                                                                            
    1225.0000     125.0000   -4975.0000  5.12083E+02  152.001  0.00000E+00  1.00000E+00  1.00001  7.4951  8.4714E-11  8.4716E-11  2.7041E-04  2.2796E-04  5.1785E-08  3.6229E-05  5.1708E-08  2.5142E-04  2.1116E-04                                                                                                                                                                                                                                                                                                                                                                                                                                                                                                                                                                                                            
    1475.0000     125.0000   -4975.0000  5.12080E+02  152.197  0.00000E+00  1.00000E+00  1.00001  7.4922  8.4872E-11  8.4874E-11  2.7070E-04  2.2827E-04  4.9614E-08  3.6236E-05  4.9540E-08  2.5174E-04  2.1181E-04                                                                                                                                                                                                                                                                                                                                                                                                                                                                                                                                                                                                            
    1725.0000     125.0000   -4975.0000  5.12076E+02  152.498  0.00000E+00  1.00000E+00  1.00001  7.4877  8.5127E-11  8.5129E-11  2.7115E-04  2.2877E-04  4.5893E-08  3.6248E-05  4.5824E-08  2.5220E-04  2.1280E-04                                                                                                                                                                                                                                                                                                                                                                                                                                                                                                                                                                                                            
    1975.0000     125.0000   -4975.0000  5.12072E+02  152.778  0.00000E+00  1.00000E+00  1.00001  7.4834  8.5367E-11  8.5369E-11  2.7161E-04  2.2927E-04  3.9950E-08  3.6265E-05  3.9889E-08  2.5269E-04  2.1361E-04                                                                                                                                                                                                                                                                                                                                                                                                                                                                                                                                                                                                            
     125.0000     125.0000   -4725.0000  4.88981E+02  135.693  0.00000E+00  1.00000E+00  1.00000  7.7740  8.5746E-11  8.5747E-11  2.3794E-04  2.0095E-04  1.2596E-06  3.5713E-05  1.2592E-06  1.6195E-04  2.3973E-04                                                                                                                                                                                                                                                                                                                                                                                                                                                                                                                                                                                                            
     375.0000     125.0000   -4725.0000  4.88986E+02  135.064  0.00000E+00  1.00000E+00  1.00000  7.7865  8.5977E-11  8.5977E-11  2.3648E-04  1.9969E-04  1.3649E-06  3.5660E-05  1.3644E-06  1.5711E-04  2.4476E-04                                                                                                                                                                                                                                                                                                                                                                                                                                                                                                                                                                                                            
     625.0000     125.0000   -4725.0000  4.88990E+02  134.564  0.00000E+00  1.00000E+00  1.00000  7.7953  8.6118E-11  8.6119E-11  2.3563E-04  1.9894E-04  1.4160E-06  3.5658E-05  1.4155E-06  1.5421E-04  2.4680E-04                                                                                                                                                                                                                                                                                                                                                                                                                                                                                                                                                                                                            
     875.0000     125.0000   -4725.0000  4.88992E+02  134.273  0.00000E+00  1.00000E+00  1.00000  7.8005  8.6194E-11  8.6195E-11  2.3515E-04  1.9851E-04  1.4450E-06  3.5657E-05  1.4445E-06  1.5257E-04  2.4795E-04                                                                                                                                                                                                                                                                                                                                                                                                                                                                                                                                                                                                            
    1050.0000     125.0000   -4725.0000  4.88992E+02  134.222  0.00000E+00  1.00000E+00  1.00000  7.8018  8.6225E-11  8.6226E-11  2.3494E-04  1.9833E-04  1.4651E-06  3.5641E-05  1.4646E-06  1.5188E-04  2.4907E-04                                                                                                                                                                                                                                                                                                                                                                                                                                                                                                                                                                                                            
    1225.0000     125.0000   -4725.0000  4.88992E+02  134.273  0.00000E+00  1.00000E+00  1.00000  7.8005  8.6194E-11  8.6195E-11  2.3515E-04  1.9851E-04  1.4451E-06  3.5657E-05  1.4446E-06  1.5257E-04  2.4795E-04                                                                                                                                                                                                                                                                                                                                                                                                                                                                                                                                                                                                            
    1475.0000     125.0000   -4725.0000  4.88990E+02  134.564  0.00000E+00  1.00000E+00  1.00000  7.7953  8.6118E-11  8.6119E-11  2.3563E-04  1.9894E-04  1.4160E-06  3.5658E-05  1.4155E-06  1.5421E-04  2.4680E-04                                                                                                                                                                                                                                                                                                                                                                                                                                                                                                                                                                                                            
    1725.0000     125.0000   -4725.0000  4.88986E+02  135.064  0.00000E+00  1.00000E+00  1.00000  7.7865  8.5977E-11  8.5977E-11  2.3648E-04  1.9969E-04  1.3649E-06  3.5660E-05  1.3644E-06  1.5711E-04  2.4476E-04                                                                                                                                                                                                                                                                                                                                                                                                                                                                                                                                                                                                            