Title="TOUGHREACT V3.30-OMP: Aqueous Total & Species Concentrations in mol/kg h2o, Surface & Exchanged Species in mol/kg h2o, Dry blocks in mol/L medium"                                                                                                                                                                                                                                                                                                                                                                                                                                                                                                                                                                                                                                                                       
Variables= "X(m)"   "Y(m)"   "Z(m)"   "P(bar)"     "T(C)"   "SatGas"   "SatLiq"     "aH2O"       "pH"        "t_na+"        "t_cl-"      "t_hco3-"       "t_ca+2"      "t_so4-2"       "t_mg+2"       "t_ba+2"       "t_al+3"     "t_h4sio4"                                                                                                                                                                                                                                                                                                                                                                                                                                                                                                                                                                                    
Zone T= "1.58443954E-09 yr" I=      9J=     10K=     23F=Point 
     125.0000     125.0000   -5425.0000  5.51333E+02  202.396  0.00000E+00  1.00000E+00  1.00001  6.7443  9.9999E-11  9.9999E-11  9.0552E-04  2.7291E-04  9.9999E-11  3.3369E-05  9.9999E-11  3.2540E-04  3.2540E-04                                                                                                                                                                                                                                                                                                                                                                                                                                                                                                                                                                                                            
     375.0000     125.0000   -5425.0000  5.51339E+02  202.283  0.00000E+00  1.00000E+00  1.00001  6.7460  9.9999E-11  9.9999E-11  9.0077E-04  2.7287E-04  9.9999E-11  3.3381E-05  9.9999E-11  3.2531E-04  3.2531E-04                                                                                                                                                                                                                                                                                                                                                                                                                                                                                                                                                                                                            
     625.0000     125.0000   -5425.0000  5.51346E+02  202.160  0.00000E+00  1.00000E+00  1.00001  6.7479  9.9999E-11  9.9999E-11  8.9561E-04  2.7283E-04  9.9999E-11  3.3394E-05  9.9999E-11  3.2520E-04  3.2520E-04                                                                                                                                                                                                                                                                                                                                                                                                                                                                                                                                                                                                            
     875.0000     125.0000   -5425.0000  5.51351E+02  202.148  0.00000E+00  1.00000E+00  1.00001  6.7481  9.9999E-11  9.9999E-11  8.9514E-04  2.7282E-04  9.9999E-11  3.3395E-05  9.9999E-11  3.2519E-04  3.2519E-04                                                                                                                                                                                                                                                                                                                                                                                                                                                                                                                                                                                                            
    1050.0000     125.0000   -5425.0000  5.51351E+02  202.337  0.00000E+00  1.00000E+00  1.00001  6.7452  9.9999E-11  9.9999E-11  9.0306E-04  2.7289E-04  9.9999E-11  3.3375E-05  9.9999E-11  3.2535E-04  3.2535E-04                                                                                                                                                                                                                                                                                                                                                                                                                                                                                                                                                                                                            
    1225.0000     125.0000   -5425.0000  5.51351E+02  202.148  0.00000E+00  1.00000E+00  1.00001  6.7481  9.9999E-11  9.9999E-11  8.9514E-04  2.7282E-04  9.9999E-11  3.3395E-05  9.9999E-11  3.2519E-04  3.2519E-04                                                                                                                                                                                                                                                                                                                                                                                                                                                                                                                                                                                                            
    1475.0000     125.0000   -5425.0000  5.51346E+02  202.160  0.00000E+00  1.00000E+00  1.00001  6.7479  9.9999E-11  9.9999E-11  8.9561E-04  2.7283E-04  9.9999E-11  3.3394E-05  9.9999E-11  3.2520E-04  3.2520E-04                                                                                                                                                                                                                                                                                                                                                                                                                                                                                                                                                                                                            
    1725.0000     125.0000   -5425.0000  5.51339E+02  202.283  0.00000E+00  1.00000E+00  1.00001  6.7460  9.9999E-11  9.9999E-11  9.0077E-04  2.7287E-04  9.9999E-11  3.3381E-05  9.9999E-11  3.2531E-04  3.2531E-04                                                                                                                                                                                                                                                                                                                                                                                                                                                                                                                                                                                                            
    1975.0000     125.0000   -5425.0000  5.51333E+02  202.396  0.00000E+00  1.00000E+00  1.00001  6.7443  9.9999E-11  9.9999E-11  9.0552E-04  2.7291E-04  9.9999E-11  3.3369E-05  9.9999E-11  3.2540E-04  3.2540E-04                                                                                                                                                                                                                                                                                                                                                                                                                                                                                                                                                                                                            
     125.0000     125.0000   -5225.0000  5.33680E+02  193.094  0.00000E+00  1.00000E+00  1.00001  6.8899  1.0000E-10  1.0000E-10  6.0035E-04  2.6887E-04  1.0000E-10  3.4352E-05  1.0000E-10  3.1693E-04  3.1693E-04                                                                                                                                                                                                                                                                                                                                                                                                                                                                                                                                                                                                            
     375.0000     125.0000   -5225.0000  5.33684E+02  192.931  0.00000E+00  1.00000E+00  1.00001  6.8925  1.0000E-10  1.0000E-10  5.9631E-04  2.6879E-04  9.9999E-11  3.4369E-05  1.0000E-10  3.1676E-04  3.1677E-04                                                                                                                                                                                                                                                                                                                                                                                                                                                                                                                                                                                                            
     625.0000     125.0000   -5225.0000  5.33691E+02  192.746  0.00000E+00  1.00000E+00  1.00001  6.8955  1.0000E-10  1.0000E-10  5.9177E-04  2.6870E-04  9.9999E-11  3.4389E-05  1.0000E-10  3.1658E-04  3.1659E-04                                                                                                                                                                                                                                                                                                                                                                                                                                                                                                                                                                                                            
     875.0000     125.0000   -5225.0000  5.33695E+02  192.649  0.00000E+00  1.00000E+00  1.00001  6.8970  1.0000E-10  1.0000E-10  5.8943E-04  2.6865E-04  1.0000E-10  3.4399E-05  1.0000E-10  3.1649E-04  3.1649E-04                                                                                                                                                                                                                                                                                                                                                                                                                                                                                                                                                                                                            
    1050.0000     125.0000   -5225.0000  5.33696E+02  192.660  0.00000E+00  1.00000E+00  1.00001  6.8969  1.0000E-10  1.0000E-10  5.8969E-04  2.6865E-04  9.9999E-11  3.4398E-05  1.0000E-10  3.1650E-04  3.1650E-04                                                                                                                                                                                                                                                                                                                                                                                                                                                                                                                                                                                                            
    1225.0000     125.0000   -5225.0000  5.33695E+02  192.649  0.00000E+00  1.00000E+00  1.00001  6.8970  1.0000E-10  1.0000E-10  5.8943E-04  2.6865E-04  1.0000E-10  3.4399E-05  1.0000E-10  3.1649E-04  3.1649E-04                                                                                                                                                                                                                                                                                                                                                                                                                                                                                                                                                                                                            
    1475.0000     125.0000   -5225.0000  5.33691E+02  192.746  0.00000E+00  1.00000E+00  1.00001  6.8955  1.0000E-10  1.0000E-10  5.9177E-04  2.6870E-04  9.9999E-11  3.4389E-05  1.0000E-10  3.1658E-04  3.1659E-04                                                                                                                                                                                                                                                                                                                                                                                                                                                                                                                                                                                                            
    1725.0000     125.0000   -5225.0000  5.33684E+02  192.931  0.00000E+00  1.00000E+00  1.00001  6.8925  1.0000E-10  1.0000E-10  5.9631E-04  2.6879E-04  9.9999E-11  3.4369E-05  1.0000E-10  3.1676E-04  3.1677E-04                                                                                                                                                                                                                                                                                                                                                                                                                                                                                                                                                                                                            
    1975.0000     125.0000   -5225.0000  5.33680E+02  193.094  0.00000E+00  1.00000E+00  1.00001  6.8899  1.0000E-10  1.0000E-10  6.0035E-04  2.6887E-04  1.0000E-10  3.4352E-05  1.0000E-10  3.1693E-04  3.1693E-04                                                                                                                                                                                                                                                                                                                                                                                                                                                                                                                                                                                                            
     125.0000     125.0000   -4975.0000  5.11349E+02  172.596  0.00000E+00  1.00000E+00  1.00001  7.2368  1.0000E-10  1.0000E-10  2.9683E-04  2.5666E-04  1.0000E-10  3.6669E-05  1.0000E-10  2.9465E-04  2.9465E-04                                                                                                                                                                                                                                                                                                                                                                                                                                                                                                                                                                                                            
     375.0000     125.0000   -4975.0000  5.11354E+02  172.239  0.00000E+00  1.00000E+00  1.00001  7.2432  1.0000E-10  1.0000E-10  2.9394E-04  2.5644E-04  1.0000E-10  3.6715E-05  1.0000E-10  2.9422E-04  2.9422E-04                                                                                                                                                                                                                                                                                                                                                                                                                                                                                                                                                                                                            
     625.0000     125.0000   -4975.0000  5.11360E+02  171.873  0.00000E+00  1.00000E+00  1.00001  7.2476  1.0000E-10  1.0000E-10  2.9286E-04  2.5613E-04  1.0000E-10  3.6734E-05  1.0000E-10  2.9306E-04  2.9306E-04                                                                                                                                                                                                                                                                                                                                                                                                                                                                                                                                                                                                            
     875.0000     125.0000   -4975.0000  5.11364E+02  171.650  0.00000E+00  1.00000E+00  1.00001  7.2498  1.0000E-10  1.0000E-10  2.9266E-04  2.5592E-04  1.0000E-10  3.6738E-05  1.0000E-10  2.9217E-04  2.9218E-04                                                                                                                                                                                                                                                                                                                                                                                                                                                                                                                                                                                                            
    1050.0000     125.0000   -4975.0000  5.11364E+02  171.624  0.00000E+00  1.00000E+00  1.00001  7.2501  1.0000E-10  1.0000E-10  2.9264E-04  2.5590E-04  1.0000E-10  3.6739E-05  1.0000E-10  2.9207E-04  2.9207E-04                                                                                                                                                                                                                                                                                                                                                                                                                                                                                                                                                                                                            
    1225.0000     125.0000   -4975.0000  5.11364E+02  171.650  0.00000E+00  1.00000E+00  1.00001  7.2498  1.0000E-10  1.0000E-10  2.9266E-04  2.5592E-04  1.0000E-10  3.6738E-05  1.0000E-10  2.9217E-04  2.9218E-04                                                                                                                                                                                                                                                                                                                                                                                                                                                                                                                                                                                                            
    1475.0000     125.0000   -4975.0000  5.11360E+02  171.873  0.00000E+00  1.00000E+00  1.00001  7.2476  1.0000E-10  1.0000E-10  2.9286E-04  2.5613E-04  1.0000E-10  3.6734E-05  1.0000E-10  2.9306E-04  2.9306E-04                                                                                                                                                                                                                                                                                                                                                                                                                                                                                                                                                                                                            
    1725.0000     125.0000   -4975.0000  5.11354E+02  172.239  0.00000E+00  1.00000E+00  1.00001  7.2432  1.0000E-10  1.0000E-10  2.9394E-04  2.5644E-04  1.0000E-10  3.6715E-05  1.0000E-10  2.9422E-04  2.9422E-04                                                                                                                                                                                                                                                                                                                                                                                                                                                                                                                                                                                                            
    1975.0000     125.0000   -4975.0000  5.11349E+02  172.596  0.00000E+00  1.00000E+00  1.00001  7.2368  1.0000E-10  1.0000E-10  2.9683E-04  2.5666E-04  1.0000E-10  3.6669E-05  1.0000E-10  2.9465E-04  2.9465E-04                                                                                                                                                                                                                                                                                                                                                                                                                                                                                                                                                                                                            
     125.0000     125.0000   -4725.0000  4.88578E+02  145.137  0.00000E+00  1.00000E+00  1.00000  7.5588  1.0000E-10  1.0000E-10  2.7037E-04  2.3212E-04  1.0000E-10  3.8251E-05  1.0000E-10  2.0334E-04  2.0334E-04                                                                                                                                                                                                                                                                                                                                                                                                                                                                                                                                                                                                            
     375.0000     125.0000   -4725.0000  4.88584E+02  144.296  0.00000E+00  1.00000E+00  1.00000  7.5701  1.0000E-10  1.0000E-10  2.6965E-04  2.3133E-04  1.0000E-10  3.8321E-05  1.0000E-10  2.0099E-04  2.0099E-04                                                                                                                                                                                                                                                                                                                                                                                                                                                                                                                                                                                                            
     625.0000     125.0000   -4725.0000  4.88589E+02  143.646  0.00000E+00  1.00000E+00  1.00000  7.5789  1.0000E-10  1.0000E-10  2.6909E-04  2.3072E-04  1.0000E-10  3.8376E-05  1.0000E-10  1.9919E-04  1.9919E-04                                                                                                                                                                                                                                                                                                                                                                                                                                                                                                                                                                                                            
     875.0000     125.0000   -4725.0000  4.88591E+02  143.281  0.00000E+00  1.00000E+00  1.00000  7.5839  1.0000E-10  1.0000E-10  2.6878E-04  2.3037E-04  1.0000E-10  3.8408E-05  1.0000E-10  1.9818E-04  1.9818E-04                                                                                                                                                                                                                                                                                                                                                                                                                                                                                                                                                                                                            
    1050.0000     125.0000   -4725.0000  4.88592E+02  143.217  0.00000E+00  1.00000E+00  1.00000  7.5848  1.0000E-10  1.0000E-10  2.6872E-04  2.3031E-04  1.0000E-10  3.8413E-05  1.0000E-10  1.9800E-04  1.9800E-04                                                                                                                                                                                                                                                                                                                                                                                                                                                                                                                                                                                                            
    1225.0000     125.0000   -4725.0000  4.88591E+02  143.281  0.00000E+00  1.00000E+00  1.00000  7.5839  1.0000E-10  1.0000E-10  2.6878E-04  2.3037E-04  1.0000E-10  3.8408E-05  1.0000E-10  1.9818E-04  1.9818E-04                                                                                                                                                                                                                                                                                                                                                                                                                                                                                                                                                                                                            
    1475.0000     125.0000   -4725.0000  4.88589E+02  143.646  0.00000E+00  1.00000E+00  1.00000  7.5789  1.0000E-10  1.0000E-10  2.6909E-04  2.3072E-04  1.0000E-10  3.8376E-05  1.0000E-10  1.9919E-04  1.9919E-04                                                                                                                                                                                                                                                                                                                                                                                                                                                                                                                                                                                                            
    1725.0000     125.0000   -4725.0000  4.88584E+02  144.296  0.00000E+00  1.00000E+00  1.00000  7.5701  1.0000E-10  1.0000E-10  2.6965E-04  2.3133E-04  1.0000E-10  3.8321E-05  1.0000E-10  2.0099E-04  2.0099E-04                                                                                                                                                                                                                                                                                                                                                                                                                                                                                                                                                                                                            