Title="TOUGHREACT V3.30-OMP: Aqueous Total & Species Concentrations in mol/kg h2o, Surface & Exchanged Species in mol/kg h2o, Dry blocks in mol/L medium"                                                                                                                                                                                                                                                                                                                                                                                                                                                                                                                                                                                                                                                                       
Variables= "X(m)"   "Y(m)"   "Z(m)"   "P(bar)"     "T(C)"   "SatGas"   "SatLiq"     "aH2O"       "pH"        "t_na+"        "t_cl-"      "t_hco3-"       "t_ca+2"      "t_so4-2"       "t_mg+2"       "t_ba+2"       "t_al+3"     "t_h4sio4"                                                                                                                                                                                                                                                                                                                                                                                                                                                                                                                                                                                    
Zone T= "3.16887907E+02 yr" I=      9J=     10K=     23F=Point 
     125.0000     125.0000   -5425.0000  5.51381E+02  197.196  0.00000E+00  1.00000E+00  1.00001  6.8254  9.9417E-11  9.9421E-11  7.1554E-04  2.7008E-04  1.0003E-10  3.3833E-05  9.9741E-11  3.2363E-04  3.1844E-04                                                                                                                                                                                                                                                                                                                                                                                                                                                                                                                                                                                                            
     375.0000     125.0000   -5425.0000  5.51386E+02  197.080  0.00000E+00  1.00000E+00  1.00001  6.8272  9.9401E-11  9.9404E-11  7.1194E-04  2.7002E-04  1.0001E-10  3.3843E-05  9.9725E-11  3.2355E-04  3.1831E-04                                                                                                                                                                                                                                                                                                                                                                                                                                                                                                                                                                                                            
     625.0000     125.0000   -5425.0000  5.51393E+02  196.950  0.00000E+00  1.00000E+00  1.00001  6.8293  9.9382E-11  9.9386E-11  7.0788E-04  2.6995E-04  9.9991E-11  3.3856E-05  9.9707E-11  3.2347E-04  3.1816E-04                                                                                                                                                                                                                                                                                                                                                                                                                                                                                                                                                                                                            
     875.0000     125.0000   -5425.0000  5.51398E+02  196.896  0.00000E+00  1.00000E+00  1.00001  6.8302  9.9378E-11  9.9382E-11  7.0621E-04  2.6992E-04  9.9992E-11  3.3861E-05  9.9705E-11  3.2344E-04  3.1810E-04                                                                                                                                                                                                                                                                                                                                                                                                                                                                                                                                                                                                            
    1050.0000     125.0000   -5425.0000  5.51398E+02  196.898  0.00000E+00  1.00000E+00  1.00001  6.8301  9.9386E-11  9.9390E-11  7.0629E-04  2.6991E-04  1.0002E-10  3.3859E-05  9.9725E-11  3.2349E-04  3.1806E-04                                                                                                                                                                                                                                                                                                                                                                                                                                                                                                                                                                                                            
    1225.0000     125.0000   -5425.0000  5.51398E+02  196.896  0.00000E+00  1.00000E+00  1.00001  6.8302  9.9378E-11  9.9382E-11  7.0621E-04  2.6992E-04  9.9992E-11  3.3861E-05  9.9705E-11  3.2344E-04  3.1810E-04                                                                                                                                                                                                                                                                                                                                                                                                                                                                                                                                                                                                            
    1475.0000     125.0000   -5425.0000  5.51393E+02  196.950  0.00000E+00  1.00000E+00  1.00001  6.8293  9.9382E-11  9.9386E-11  7.0788E-04  2.6995E-04  9.9991E-11  3.3856E-05  9.9707E-11  3.2347E-04  3.1816E-04                                                                                                                                                                                                                                                                                                                                                                                                                                                                                                                                                                                                            
    1725.0000     125.0000   -5425.0000  5.51386E+02  197.080  0.00000E+00  1.00000E+00  1.00001  6.8272  9.9401E-11  9.9404E-11  7.1194E-04  2.7002E-04  1.0001E-10  3.3843E-05  9.9725E-11  3.2355E-04  3.1831E-04                                                                                                                                                                                                                                                                                                                                                                                                                                                                                                                                                                                                            
    1975.0000     125.0000   -5425.0000  5.51381E+02  197.196  0.00000E+00  1.00000E+00  1.00001  6.8254  9.9417E-11  9.9421E-11  7.1554E-04  2.7008E-04  1.0003E-10  3.3833E-05  9.9741E-11  3.2363E-04  3.1844E-04                                                                                                                                                                                                                                                                                                                                                                                                                                                                                                                                                                                                            
     125.0000     125.0000   -5225.0000  5.33668E+02  189.987  0.00000E+00  1.00000E+00  1.00001  6.9411  9.8506E-11  9.8507E-11  5.3006E-04  2.6614E-04  1.0040E-10  3.4545E-05  1.0026E-10  3.1757E-04  3.1085E-04                                                                                                                                                                                                                                                                                                                                                                                                                                                                                                                                                                                                            
     375.0000     125.0000   -5225.0000  5.33672E+02  189.824  0.00000E+00  1.00000E+00  1.00001  6.9438  9.8492E-11  9.8494E-11  5.2668E-04  2.6604E-04  1.0076E-10  3.4561E-05  1.0062E-10  3.1743E-04  3.1067E-04                                                                                                                                                                                                                                                                                                                                                                                                                                                                                                                                                                                                            
     625.0000     125.0000   -5225.0000  5.33678E+02  189.636  0.00000E+00  1.00000E+00  1.00001  6.9468  9.8477E-11  9.8479E-11  5.2283E-04  2.6593E-04  1.0102E-10  3.4580E-05  1.0088E-10  3.1727E-04  3.1046E-04                                                                                                                                                                                                                                                                                                                                                                                                                                                                                                                                                                                                            
     875.0000     125.0000   -5225.0000  5.33682E+02  189.530  0.00000E+00  1.00000E+00  1.00001  6.9486  9.8469E-11  9.8471E-11  5.2067E-04  2.6587E-04  1.0117E-10  3.4590E-05  1.0103E-10  3.1718E-04  3.1034E-04                                                                                                                                                                                                                                                                                                                                                                                                                                                                                                                                                                                                            
    1050.0000     125.0000   -5225.0000  5.33682E+02  189.522  0.00000E+00  1.00000E+00  1.00001  6.9487  9.8469E-11  9.8471E-11  5.2049E-04  2.6586E-04  1.0123E-10  3.4591E-05  1.0109E-10  3.1718E-04  3.1032E-04                                                                                                                                                                                                                                                                                                                                                                                                                                                                                                                                                                                                            
    1225.0000     125.0000   -5225.0000  5.33682E+02  189.530  0.00000E+00  1.00000E+00  1.00001  6.9486  9.8469E-11  9.8471E-11  5.2067E-04  2.6587E-04  1.0117E-10  3.4590E-05  1.0103E-10  3.1718E-04  3.1034E-04                                                                                                                                                                                                                                                                                                                                                                                                                                                                                                                                                                                                            
    1475.0000     125.0000   -5225.0000  5.33678E+02  189.636  0.00000E+00  1.00000E+00  1.00001  6.9468  9.8477E-11  9.8479E-11  5.2283E-04  2.6593E-04  1.0102E-10  3.4580E-05  1.0088E-10  3.1727E-04  3.1046E-04                                                                                                                                                                                                                                                                                                                                                                                                                                                                                                                                                                                                            
    1725.0000     125.0000   -5225.0000  5.33672E+02  189.824  0.00000E+00  1.00000E+00  1.00001  6.9438  9.8492E-11  9.8494E-11  5.2668E-04  2.6604E-04  1.0076E-10  3.4561E-05  1.0062E-10  3.1743E-04  3.1067E-04                                                                                                                                                                                                                                                                                                                                                                                                                                                                                                                                                                                                            
    1975.0000     125.0000   -5225.0000  5.33668E+02  189.987  0.00000E+00  1.00000E+00  1.00001  6.9411  9.8506E-11  9.8507E-11  5.3006E-04  2.6614E-04  1.0040E-10  3.4545E-05  1.0026E-10  3.1757E-04  3.1085E-04                                                                                                                                                                                                                                                                                                                                                                                                                                                                                                                                                                                                            
     125.0000     125.0000   -4975.0000  5.11323E+02  170.389  0.00000E+00  1.00000E+00  1.00001  7.2622  9.9996E-11  9.9995E-11  2.9153E-04  2.5488E-04  8.2511E-10  3.6783E-05  8.2542E-10  2.8655E-04  2.8780E-04                                                                                                                                                                                                                                                                                                                                                                                                                                                                                                                                                                                                            
     375.0000     125.0000   -4975.0000  5.11328E+02  170.041  0.00000E+00  1.00000E+00  1.00001  7.2657  9.9996E-11  9.9995E-11  2.9123E-04  2.5456E-04  9.4943E-10  3.6792E-05  9.4977E-10  2.8521E-04  2.8644E-04                                                                                                                                                                                                                                                                                                                                                                                                                                                                                                                                                                                                            
     625.0000     125.0000   -4975.0000  5.11333E+02  169.682  0.00000E+00  1.00000E+00  1.00001  7.2693  9.9996E-11  9.9995E-11  2.9092E-04  2.5423E-04  1.0240E-09  3.6801E-05  1.0244E-09  2.8383E-04  2.8504E-04                                                                                                                                                                                                                                                                                                                                                                                                                                                                                                                                                                                                            
     875.0000     125.0000   -4975.0000  5.11337E+02  169.461  0.00000E+00  1.00000E+00  1.00001  7.2715  9.9996E-11  9.9995E-11  2.9072E-04  2.5403E-04  1.0667E-09  3.6807E-05  1.0670E-09  2.8298E-04  2.8419E-04                                                                                                                                                                                                                                                                                                                                                                                                                                                                                                                                                                                                            
    1050.0000     125.0000   -4975.0000  5.11337E+02  169.434  0.00000E+00  1.00000E+00  1.00001  7.2718  9.9996E-11  9.9995E-11  2.9070E-04  2.5401E-04  1.0866E-09  3.6808E-05  1.0870E-09  2.8287E-04  2.8409E-04                                                                                                                                                                                                                                                                                                                                                                                                                                                                                                                                                                                                            
    1225.0000     125.0000   -4975.0000  5.11337E+02  169.461  0.00000E+00  1.00000E+00  1.00001  7.2715  9.9996E-11  9.9995E-11  2.9072E-04  2.5403E-04  1.0667E-09  3.6807E-05  1.0670E-09  2.8298E-04  2.8419E-04                                                                                                                                                                                                                                                                                                                                                                                                                                                                                                                                                                                                            
    1475.0000     125.0000   -4975.0000  5.11333E+02  169.682  0.00000E+00  1.00000E+00  1.00001  7.2693  9.9996E-11  9.9995E-11  2.9092E-04  2.5423E-04  1.0240E-09  3.6801E-05  1.0244E-09  2.8383E-04  2.8504E-04                                                                                                                                                                                                                                                                                                                                                                                                                                                                                                                                                                                                            
    1725.0000     125.0000   -4975.0000  5.11328E+02  170.041  0.00000E+00  1.00000E+00  1.00001  7.2657  9.9996E-11  9.9995E-11  2.9123E-04  2.5456E-04  9.4944E-10  3.6792E-05  9.4978E-10  2.8521E-04  2.8644E-04                                                                                                                                                                                                                                                                                                                                                                                                                                                                                                                                                                                                            
    1975.0000     125.0000   -4975.0000  5.11323E+02  170.389  0.00000E+00  1.00000E+00  1.00001  7.2622  9.9996E-11  9.9995E-11  2.9153E-04  2.5488E-04  8.2512E-10  3.6783E-05  8.2543E-10  2.8655E-04  2.8780E-04                                                                                                                                                                                                                                                                                                                                                                                                                                                                                                                                                                                                            
     125.0000     125.0000   -4725.0000  4.88579E+02  143.995  0.00000E+00  1.00000E+00  1.00000  7.5852  9.8113E-11  9.8113E-11  2.6587E-04  2.2768E-04  1.7258E-07  3.7858E-05  1.7257E-07  1.9770E-04  2.0803E-04                                                                                                                                                                                                                                                                                                                                                                                                                                                                                                                                                                                                            
     375.0000     125.0000   -4725.0000  4.88584E+02  143.181  0.00000E+00  1.00000E+00  1.00000  7.5970  9.8129E-11  9.8129E-11  2.6493E-04  2.2672E-04  1.8847E-07  3.7898E-05  1.8846E-07  1.9491E-04  2.0667E-04                                                                                                                                                                                                                                                                                                                                                                                                                                                                                                                                                                                                            
     625.0000     125.0000   -4725.0000  4.88589E+02  142.549  0.00000E+00  1.00000E+00  1.00000  7.6061  9.8141E-11  9.8141E-11  2.6427E-04  2.2604E-04  1.9611E-07  3.7938E-05  1.9610E-07  1.9290E-04  2.0537E-04                                                                                                                                                                                                                                                                                                                                                                                                                                                                                                                                                                                                            
     875.0000     125.0000   -4725.0000  4.88591E+02  142.193  0.00000E+00  1.00000E+00  1.00000  7.6112  9.8143E-11  9.8143E-11  2.6389E-04  2.2565E-04  2.0039E-07  3.7960E-05  2.0038E-07  1.9179E-04  2.0464E-04                                                                                                                                                                                                                                                                                                                                                                                                                                                                                                                                                                                                            
    1050.0000     125.0000   -4725.0000  4.88592E+02  142.130  0.00000E+00  1.00000E+00  1.00000  7.6122  9.8142E-11  9.8142E-11  2.6379E-04  2.2555E-04  2.0327E-07  3.7960E-05  2.0326E-07  1.9153E-04  2.0462E-04                                                                                                                                                                                                                                                                                                                                                                                                                                                                                                                                                                                                            
    1225.0000     125.0000   -4725.0000  4.88591E+02  142.193  0.00000E+00  1.00000E+00  1.00000  7.6112  9.8143E-11  9.8143E-11  2.6389E-04  2.2565E-04  2.0039E-07  3.7960E-05  2.0038E-07  1.9179E-04  2.0464E-04                                                                                                                                                                                                                                                                                                                                                                                                                                                                                                                                                                                                            
    1475.0000     125.0000   -4725.0000  4.88589E+02  142.549  0.00000E+00  1.00000E+00  1.00000  7.6061  9.8141E-11  9.8141E-11  2.6427E-04  2.2604E-04  1.9611E-07  3.7938E-05  1.9610E-07  1.9290E-04  2.0537E-04                                                                                                                                                                                                                                                                                                                                                                                                                                                                                                                                                                                                            
    1725.0000     125.0000   -4725.0000  4.88584E+02  143.181  0.00000E+00  1.00000E+00  1.00000  7.5970  9.8129E-11  9.8129E-11  2.6493E-04  2.2672E-04  1.8847E-07  3.7898E-05  1.8846E-07  1.9491E-04  2.0667E-04                                                                                                                                                                                                                                                                                                                                                                                                                                                                                                                                                                                                            