Title="TOUGHREACT V3.30-OMP: Aqueous Total & Species Concentrations in mol/kg h2o, Surface & Exchanged Species in mol/kg h2o, Dry blocks in mol/L medium"                                                                                                                                                                                                                                                                                                                                                                                                                                                                                                                                                                                                                                                                       
Variables= "X(m)"   "Y(m)"   "Z(m)"   "P(bar)"     "T(C)"   "SatGas"   "SatLiq"     "aH2O"       "pH"        "t_na+"        "t_cl-"      "t_hco3-"       "t_ca+2"      "t_so4-2"       "t_mg+2"       "t_ba+2"       "t_al+3"     "t_h4sio4"                                                                                                                                                                                                                                                                                                                                                                                                                                                                                                                                                                                    
Zone T= "3.16887907E-01 yr" I=      9J=     10K=     23F=Point 
     125.0000     125.0000   -5425.0000  5.51232E+02  202.391  0.00000E+00  1.00000E+00  1.00001  6.7444  1.0000E-10  1.0000E-10  9.0531E-04  2.7291E-04  1.0000E-10  3.3369E-05  1.0000E-10  3.2540E-04  3.2540E-04                                                                                                                                                                                                                                                                                                                                                                                                                                                                                                                                                                                                            
     375.0000     125.0000   -5425.0000  5.51237E+02  202.278  0.00000E+00  1.00000E+00  1.00001  6.7461  1.0000E-10  1.0000E-10  9.0056E-04  2.7287E-04  1.0000E-10  3.3382E-05  1.0000E-10  3.2530E-04  3.2531E-04                                                                                                                                                                                                                                                                                                                                                                                                                                                                                                                                                                                                            
     625.0000     125.0000   -5425.0000  5.51245E+02  202.155  0.00000E+00  1.00000E+00  1.00001  6.7480  1.0000E-10  1.0000E-10  8.9541E-04  2.7283E-04  1.0000E-10  3.3395E-05  1.0000E-10  3.2520E-04  3.2520E-04                                                                                                                                                                                                                                                                                                                                                                                                                                                                                                                                                                                                            
     875.0000     125.0000   -5425.0000  5.51249E+02  202.143  0.00000E+00  1.00000E+00  1.00001  6.7482  1.0000E-10  1.0000E-10  8.9493E-04  2.7282E-04  1.0000E-10  3.3396E-05  1.0000E-10  3.2519E-04  3.2519E-04                                                                                                                                                                                                                                                                                                                                                                                                                                                                                                                                                                                                            
    1050.0000     125.0000   -5425.0000  5.51249E+02  202.332  0.00000E+00  1.00000E+00  1.00001  6.7453  1.0000E-10  1.0000E-10  9.0283E-04  2.7289E-04  1.0000E-10  3.3376E-05  1.0000E-10  3.2535E-04  3.2535E-04                                                                                                                                                                                                                                                                                                                                                                                                                                                                                                                                                                                                            
    1225.0000     125.0000   -5425.0000  5.51249E+02  202.143  0.00000E+00  1.00000E+00  1.00001  6.7482  1.0000E-10  1.0000E-10  8.9493E-04  2.7282E-04  1.0000E-10  3.3396E-05  1.0000E-10  3.2519E-04  3.2519E-04                                                                                                                                                                                                                                                                                                                                                                                                                                                                                                                                                                                                            
    1475.0000     125.0000   -5425.0000  5.51245E+02  202.155  0.00000E+00  1.00000E+00  1.00001  6.7480  1.0000E-10  1.0000E-10  8.9541E-04  2.7283E-04  1.0000E-10  3.3395E-05  1.0000E-10  3.2520E-04  3.2520E-04                                                                                                                                                                                                                                                                                                                                                                                                                                                                                                                                                                                                            
    1725.0000     125.0000   -5425.0000  5.51237E+02  202.278  0.00000E+00  1.00000E+00  1.00001  6.7461  1.0000E-10  1.0000E-10  9.0056E-04  2.7287E-04  1.0000E-10  3.3382E-05  1.0000E-10  3.2530E-04  3.2531E-04                                                                                                                                                                                                                                                                                                                                                                                                                                                                                                                                                                                                            
    1975.0000     125.0000   -5425.0000  5.51232E+02  202.391  0.00000E+00  1.00000E+00  1.00001  6.7444  1.0000E-10  1.0000E-10  9.0531E-04  2.7291E-04  1.0000E-10  3.3369E-05  1.0000E-10  3.2540E-04  3.2540E-04                                                                                                                                                                                                                                                                                                                                                                                                                                                                                                                                                                                                            
     125.0000     125.0000   -5225.0000  5.33600E+02  193.092  0.00000E+00  1.00000E+00  1.00001  6.8899  1.0000E-10  1.0000E-10  6.0030E-04  2.6887E-04  1.0000E-10  3.4352E-05  1.0000E-10  3.1693E-04  3.1692E-04                                                                                                                                                                                                                                                                                                                                                                                                                                                                                                                                                                                                            
     375.0000     125.0000   -5225.0000  5.33605E+02  192.929  0.00000E+00  1.00000E+00  1.00001  6.8925  1.0000E-10  1.0000E-10  5.9626E-04  2.6879E-04  1.0000E-10  3.4370E-05  1.0000E-10  3.1677E-04  3.1676E-04                                                                                                                                                                                                                                                                                                                                                                                                                                                                                                                                                                                                            
     625.0000     125.0000   -5225.0000  5.33611E+02  192.744  0.00000E+00  1.00000E+00  1.00001  6.8955  1.0000E-10  1.0000E-10  5.9172E-04  2.6870E-04  1.0000E-10  3.4389E-05  1.0000E-10  3.1659E-04  3.1658E-04                                                                                                                                                                                                                                                                                                                                                                                                                                                                                                                                                                                                            
     875.0000     125.0000   -5225.0000  5.33616E+02  192.647  0.00000E+00  1.00000E+00  1.00001  6.8971  1.0000E-10  1.0000E-10  5.8939E-04  2.6865E-04  1.0000E-10  3.4399E-05  1.0000E-10  3.1649E-04  3.1649E-04                                                                                                                                                                                                                                                                                                                                                                                                                                                                                                                                                                                                            
    1050.0000     125.0000   -5225.0000  5.33617E+02  192.658  0.00000E+00  1.00000E+00  1.00001  6.8969  1.0000E-10  1.0000E-10  5.8964E-04  2.6865E-04  1.0000E-10  3.4398E-05  1.0000E-10  3.1650E-04  3.1650E-04                                                                                                                                                                                                                                                                                                                                                                                                                                                                                                                                                                                                            
    1225.0000     125.0000   -5225.0000  5.33616E+02  192.647  0.00000E+00  1.00000E+00  1.00001  6.8971  1.0000E-10  1.0000E-10  5.8939E-04  2.6865E-04  1.0000E-10  3.4399E-05  1.0000E-10  3.1649E-04  3.1649E-04                                                                                                                                                                                                                                                                                                                                                                                                                                                                                                                                                                                                            
    1475.0000     125.0000   -5225.0000  5.33611E+02  192.744  0.00000E+00  1.00000E+00  1.00001  6.8955  1.0000E-10  1.0000E-10  5.9172E-04  2.6870E-04  1.0000E-10  3.4389E-05  1.0000E-10  3.1659E-04  3.1658E-04                                                                                                                                                                                                                                                                                                                                                                                                                                                                                                                                                                                                            
    1725.0000     125.0000   -5225.0000  5.33605E+02  192.929  0.00000E+00  1.00000E+00  1.00001  6.8925  1.0000E-10  1.0000E-10  5.9626E-04  2.6879E-04  1.0000E-10  3.4370E-05  1.0000E-10  3.1677E-04  3.1676E-04                                                                                                                                                                                                                                                                                                                                                                                                                                                                                                                                                                                                            
    1975.0000     125.0000   -5225.0000  5.33600E+02  193.092  0.00000E+00  1.00000E+00  1.00001  6.8899  1.0000E-10  1.0000E-10  6.0030E-04  2.6887E-04  1.0000E-10  3.4352E-05  1.0000E-10  3.1693E-04  3.1692E-04                                                                                                                                                                                                                                                                                                                                                                                                                                                                                                                                                                                                            
     125.0000     125.0000   -4975.0000  5.11291E+02  172.594  0.00000E+00  1.00000E+00  1.00001  7.2368  1.0000E-10  1.0000E-10  2.9682E-04  2.5666E-04  1.0000E-10  3.6670E-05  1.0000E-10  2.9464E-04  2.9465E-04                                                                                                                                                                                                                                                                                                                                                                                                                                                                                                                                                                                                            
     375.0000     125.0000   -4975.0000  5.11296E+02  172.237  0.00000E+00  1.00000E+00  1.00001  7.2432  1.0000E-10  1.0000E-10  2.9393E-04  2.5643E-04  1.0000E-10  3.6715E-05  1.0000E-10  2.9422E-04  2.9422E-04                                                                                                                                                                                                                                                                                                                                                                                                                                                                                                                                                                                                            
     625.0000     125.0000   -4975.0000  5.11302E+02  171.871  0.00000E+00  1.00000E+00  1.00001  7.2476  1.0000E-10  1.0000E-10  2.9286E-04  2.5613E-04  1.0000E-10  3.6734E-05  1.0000E-10  2.9305E-04  2.9305E-04                                                                                                                                                                                                                                                                                                                                                                                                                                                                                                                                                                                                            
     875.0000     125.0000   -4975.0000  5.11306E+02  171.648  0.00000E+00  1.00000E+00  1.00001  7.2498  1.0000E-10  1.0000E-10  2.9266E-04  2.5592E-04  1.0000E-10  3.6738E-05  1.0000E-10  2.9217E-04  2.9217E-04                                                                                                                                                                                                                                                                                                                                                                                                                                                                                                                                                                                                            
    1050.0000     125.0000   -4975.0000  5.11307E+02  171.622  0.00000E+00  1.00000E+00  1.00001  7.2501  1.0000E-10  1.0000E-10  2.9263E-04  2.5590E-04  1.0000E-10  3.6739E-05  1.0000E-10  2.9206E-04  2.9207E-04                                                                                                                                                                                                                                                                                                                                                                                                                                                                                                                                                                                                            
    1225.0000     125.0000   -4975.0000  5.11306E+02  171.648  0.00000E+00  1.00000E+00  1.00001  7.2498  1.0000E-10  1.0000E-10  2.9266E-04  2.5592E-04  1.0000E-10  3.6738E-05  1.0000E-10  2.9217E-04  2.9217E-04                                                                                                                                                                                                                                                                                                                                                                                                                                                                                                                                                                                                            
    1475.0000     125.0000   -4975.0000  5.11302E+02  171.871  0.00000E+00  1.00000E+00  1.00001  7.2476  1.0000E-10  1.0000E-10  2.9286E-04  2.5613E-04  1.0000E-10  3.6734E-05  1.0000E-10  2.9305E-04  2.9305E-04                                                                                                                                                                                                                                                                                                                                                                                                                                                                                                                                                                                                            
    1725.0000     125.0000   -4975.0000  5.11296E+02  172.237  0.00000E+00  1.00000E+00  1.00001  7.2432  1.0000E-10  1.0000E-10  2.9393E-04  2.5643E-04  1.0000E-10  3.6715E-05  1.0000E-10  2.9422E-04  2.9422E-04                                                                                                                                                                                                                                                                                                                                                                                                                                                                                                                                                                                                            
    1975.0000     125.0000   -4975.0000  5.11291E+02  172.594  0.00000E+00  1.00000E+00  1.00001  7.2368  1.0000E-10  1.0000E-10  2.9682E-04  2.5666E-04  1.0000E-10  3.6670E-05  1.0000E-10  2.9464E-04  2.9465E-04                                                                                                                                                                                                                                                                                                                                                                                                                                                                                                                                                                                                            
     125.0000     125.0000   -4725.0000  4.88537E+02  145.136  0.00000E+00  1.00000E+00  1.00000  7.5588  9.9999E-11  9.9999E-11  2.7037E-04  2.3212E-04  1.0000E-10  3.8251E-05  1.0000E-10  2.0334E-04  2.0334E-04                                                                                                                                                                                                                                                                                                                                                                                                                                                                                                                                                                                                            
     375.0000     125.0000   -4725.0000  4.88543E+02  144.295  0.00000E+00  1.00000E+00  1.00000  7.5701  9.9999E-11  9.9999E-11  2.6965E-04  2.3133E-04  1.0014E-10  3.8321E-05  1.0014E-10  2.0099E-04  2.0099E-04                                                                                                                                                                                                                                                                                                                                                                                                                                                                                                                                                                                                            
     625.0000     125.0000   -4725.0000  4.88547E+02  143.646  0.00000E+00  1.00000E+00  1.00000  7.5789  9.9999E-11  9.9999E-11  2.6909E-04  2.3071E-04  1.0262E-10  3.8376E-05  1.0262E-10  1.9919E-04  1.9918E-04                                                                                                                                                                                                                                                                                                                                                                                                                                                                                                                                                                                                            
     875.0000     125.0000   -4725.0000  4.88550E+02  143.280  0.00000E+00  1.00000E+00  1.00000  7.5839  9.9995E-11  9.9995E-11  2.6877E-04  2.3036E-04  1.2546E-10  3.8407E-05  1.2546E-10  1.9818E-04  1.9817E-04                                                                                                                                                                                                                                                                                                                                                                                                                                                                                                                                                                                                            
    1050.0000     125.0000   -4725.0000  4.88551E+02  143.216  0.00000E+00  1.00000E+00  1.00000  7.5848  9.9992E-11  9.9992E-11  2.6871E-04  2.3030E-04  2.3250E-10  3.8412E-05  2.3250E-10  1.9801E-04  1.9800E-04                                                                                                                                                                                                                                                                                                                                                                                                                                                                                                                                                                                                            
    1225.0000     125.0000   -4725.0000  4.88550E+02  143.280  0.00000E+00  1.00000E+00  1.00000  7.5839  9.9995E-11  9.9995E-11  2.6877E-04  2.3036E-04  1.2546E-10  3.8407E-05  1.2546E-10  1.9818E-04  1.9817E-04                                                                                                                                                                                                                                                                                                                                                                                                                                                                                                                                                                                                            
    1475.0000     125.0000   -4725.0000  4.88547E+02  143.646  0.00000E+00  1.00000E+00  1.00000  7.5789  9.9999E-11  9.9999E-11  2.6909E-04  2.3071E-04  1.0262E-10  3.8376E-05  1.0262E-10  1.9919E-04  1.9918E-04                                                                                                                                                                                                                                                                                                                                                                                                                                                                                                                                                                                                            
    1725.0000     125.0000   -4725.0000  4.88543E+02  144.295  0.00000E+00  1.00000E+00  1.00000  7.5701  9.9999E-11  9.9999E-11  2.6965E-04  2.3133E-04  1.0014E-10  3.8321E-05  1.0014E-10  2.0099E-04  2.0099E-04                                                                                                                                                                                                                                                                                                                                                                                                                                                                                                                                                                                                            