Title="TOUGHREACT V3.30-OMP: Aqueous Total & Species Concentrations in mol/kg h2o, Surface & Exchanged Species in mol/kg h2o, Dry blocks in mol/L medium"                                                                                                                                                                                                                                                                                                                                                                                                                                                                                                                                                                                                                                                                       
Variables= "X(m)"   "Y(m)"   "Z(m)"   "P(bar)"     "T(C)"   "SatGas"   "SatLiq"     "aH2O"       "pH"        "t_na+"        "t_cl-"      "t_hco3-"       "t_ca+2"      "t_so4-2"       "t_mg+2"       "t_ba+2"       "t_al+3"     "t_h4sio4"                                                                                                                                                                                                                                                                                                                                                                                                                                                                                                                                                                                    
Zone T= "3.16887907E+01 yr" I=      9J=     10K=     23F=Point 
     125.0000     125.0000   -5425.0000  5.51165E+02  201.809  0.00000E+00  1.00000E+00  1.00001  6.7533  9.9982E-11  9.9983E-11  8.8113E-04  2.7264E-04  1.0005E-10  3.3425E-05  1.0002E-10  3.2513E-04  3.2470E-04                                                                                                                                                                                                                                                                                                                                                                                                                                                                                                                                                                                                            
     375.0000     125.0000   -5425.0000  5.51170E+02  201.696  0.00000E+00  1.00000E+00  1.00001  6.7551  9.9980E-11  9.9981E-11  8.7652E-04  2.7260E-04  1.0005E-10  3.3437E-05  1.0002E-10  3.2504E-04  3.2460E-04                                                                                                                                                                                                                                                                                                                                                                                                                                                                                                                                                                                                            
     625.0000     125.0000   -5425.0000  5.51177E+02  201.572  0.00000E+00  1.00000E+00  1.00001  6.7570  9.9978E-11  9.9979E-11  8.7152E-04  2.7255E-04  1.0005E-10  3.3450E-05  1.0002E-10  3.2494E-04  3.2449E-04                                                                                                                                                                                                                                                                                                                                                                                                                                                                                                                                                                                                            
     875.0000     125.0000   -5425.0000  5.51181E+02  201.559  0.00000E+00  1.00000E+00  1.00001  6.7572  9.9978E-11  9.9978E-11  8.7100E-04  2.7255E-04  1.0005E-10  3.3451E-05  1.0001E-10  3.2493E-04  3.2448E-04                                                                                                                                                                                                                                                                                                                                                                                                                                                                                                                                                                                                            
    1050.0000     125.0000   -5425.0000  5.51180E+02  201.695  0.00000E+00  1.00000E+00  1.00001  6.7551  9.9981E-11  9.9981E-11  8.7652E-04  2.7259E-04  1.0006E-10  3.3436E-05  1.0002E-10  3.2506E-04  3.2459E-04                                                                                                                                                                                                                                                                                                                                                                                                                                                                                                                                                                                                            
    1225.0000     125.0000   -5425.0000  5.51181E+02  201.559  0.00000E+00  1.00000E+00  1.00001  6.7572  9.9978E-11  9.9978E-11  8.7100E-04  2.7255E-04  1.0005E-10  3.3451E-05  1.0001E-10  3.2493E-04  3.2448E-04                                                                                                                                                                                                                                                                                                                                                                                                                                                                                                                                                                                                            
    1475.0000     125.0000   -5425.0000  5.51177E+02  201.572  0.00000E+00  1.00000E+00  1.00001  6.7570  9.9978E-11  9.9979E-11  8.7152E-04  2.7255E-04  1.0005E-10  3.3450E-05  1.0002E-10  3.2494E-04  3.2449E-04                                                                                                                                                                                                                                                                                                                                                                                                                                                                                                                                                                                                            
    1725.0000     125.0000   -5425.0000  5.51170E+02  201.696  0.00000E+00  1.00000E+00  1.00001  6.7551  9.9980E-11  9.9981E-11  8.7652E-04  2.7260E-04  1.0005E-10  3.3437E-05  1.0002E-10  3.2504E-04  3.2460E-04                                                                                                                                                                                                                                                                                                                                                                                                                                                                                                                                                                                                            
    1975.0000     125.0000   -5425.0000  5.51165E+02  201.809  0.00000E+00  1.00000E+00  1.00001  6.7533  9.9982E-11  9.9983E-11  8.8113E-04  2.7264E-04  1.0005E-10  3.3425E-05  1.0002E-10  3.2513E-04  3.2470E-04                                                                                                                                                                                                                                                                                                                                                                                                                                                                                                                                                                                                            
     125.0000     125.0000   -5225.0000  5.33534E+02  192.812  0.00000E+00  1.00000E+00  1.00001  6.8945  9.9862E-11  9.9862E-11  5.9344E-04  2.6863E-04  9.9893E-11  3.4370E-05  9.9880E-11  3.1700E-04  3.1637E-04                                                                                                                                                                                                                                                                                                                                                                                                                                                                                                                                                                                                            
     375.0000     125.0000   -5225.0000  5.33538E+02  192.649  0.00000E+00  1.00000E+00  1.00001  6.8971  9.9861E-11  9.9861E-11  5.8947E-04  2.6854E-04  9.9892E-11  3.4387E-05  9.9879E-11  3.1684E-04  3.1621E-04                                                                                                                                                                                                                                                                                                                                                                                                                                                                                                                                                                                                            
     625.0000     125.0000   -5225.0000  5.33544E+02  192.463  0.00000E+00  1.00000E+00  1.00001  6.9001  9.9859E-11  9.9859E-11  5.8500E-04  2.6845E-04  9.9891E-11  3.4406E-05  9.9878E-11  3.1666E-04  3.1603E-04                                                                                                                                                                                                                                                                                                                                                                                                                                                                                                                                                                                                            
     875.0000     125.0000   -5225.0000  5.33548E+02  192.367  0.00000E+00  1.00000E+00  1.00001  6.9017  9.9858E-11  9.9858E-11  5.8269E-04  2.6840E-04  9.9890E-11  3.4416E-05  9.9878E-11  3.1657E-04  3.1593E-04                                                                                                                                                                                                                                                                                                                                                                                                                                                                                                                                                                                                            
    1050.0000     125.0000   -5225.0000  5.33548E+02  192.376  0.00000E+00  1.00000E+00  1.00001  6.9015  9.9858E-11  9.9858E-11  5.8292E-04  2.6840E-04  9.9891E-11  3.4415E-05  9.9878E-11  3.1658E-04  3.1594E-04                                                                                                                                                                                                                                                                                                                                                                                                                                                                                                                                                                                                            
    1225.0000     125.0000   -5225.0000  5.33548E+02  192.367  0.00000E+00  1.00000E+00  1.00001  6.9017  9.9858E-11  9.9858E-11  5.8269E-04  2.6840E-04  9.9890E-11  3.4416E-05  9.9878E-11  3.1657E-04  3.1593E-04                                                                                                                                                                                                                                                                                                                                                                                                                                                                                                                                                                                                            
    1475.0000     125.0000   -5225.0000  5.33544E+02  192.463  0.00000E+00  1.00000E+00  1.00001  6.9001  9.9859E-11  9.9859E-11  5.8500E-04  2.6845E-04  9.9891E-11  3.4406E-05  9.9878E-11  3.1666E-04  3.1603E-04                                                                                                                                                                                                                                                                                                                                                                                                                                                                                                                                                                                                            
    1725.0000     125.0000   -5225.0000  5.33538E+02  192.649  0.00000E+00  1.00000E+00  1.00001  6.8971  9.9861E-11  9.9861E-11  5.8947E-04  2.6854E-04  9.9892E-11  3.4387E-05  9.9879E-11  3.1684E-04  3.1621E-04                                                                                                                                                                                                                                                                                                                                                                                                                                                                                                                                                                                                            
    1975.0000     125.0000   -5225.0000  5.33534E+02  192.812  0.00000E+00  1.00000E+00  1.00001  6.8945  9.9862E-11  9.9862E-11  5.9344E-04  2.6863E-04  9.9893E-11  3.4370E-05  9.9880E-11  3.1700E-04  3.1637E-04                                                                                                                                                                                                                                                                                                                                                                                                                                                                                                                                                                                                            
     125.0000     125.0000   -4975.0000  5.11248E+02  172.372  0.00000E+00  1.00000E+00  1.00001  7.2408  1.0000E-10  1.0000E-10  2.9501E-04  2.5654E-04  1.0368E-10  3.6700E-05  1.0370E-10  2.9431E-04  2.9444E-04                                                                                                                                                                                                                                                                                                                                                                                                                                                                                                                                                                                                            
     375.0000     125.0000   -4975.0000  5.11253E+02  172.017  0.00000E+00  1.00000E+00  1.00001  7.2462  1.0000E-10  1.0000E-10  2.9299E-04  2.5627E-04  1.0611E-10  3.6733E-05  1.0613E-10  2.9356E-04  2.9369E-04                                                                                                                                                                                                                                                                                                                                                                                                                                                                                                                                                                                                            
     625.0000     125.0000   -4975.0000  5.11258E+02  171.651  0.00000E+00  1.00000E+00  1.00001  7.2498  1.0000E-10  1.0000E-10  2.9266E-04  2.5594E-04  1.0769E-10  3.6740E-05  1.0770E-10  2.9211E-04  2.9223E-04                                                                                                                                                                                                                                                                                                                                                                                                                                                                                                                                                                                                            
     875.0000     125.0000   -4975.0000  5.11262E+02  171.428  0.00000E+00  1.00000E+00  1.00001  7.2520  1.0000E-10  1.0000E-10  2.9246E-04  2.5573E-04  1.0868E-10  3.6745E-05  1.0869E-10  2.9123E-04  2.9136E-04                                                                                                                                                                                                                                                                                                                                                                                                                                                                                                                                                                                                            
    1050.0000     125.0000   -4975.0000  5.11262E+02  171.402  0.00000E+00  1.00000E+00  1.00001  7.2522  1.0000E-10  1.0000E-10  2.9244E-04  2.5571E-04  1.0924E-10  3.6745E-05  1.0925E-10  2.9113E-04  2.9125E-04                                                                                                                                                                                                                                                                                                                                                                                                                                                                                                                                                                                                            
    1225.0000     125.0000   -4975.0000  5.11262E+02  171.428  0.00000E+00  1.00000E+00  1.00001  7.2520  1.0000E-10  1.0000E-10  2.9246E-04  2.5573E-04  1.0868E-10  3.6745E-05  1.0869E-10  2.9123E-04  2.9136E-04                                                                                                                                                                                                                                                                                                                                                                                                                                                                                                                                                                                                            
    1475.0000     125.0000   -4975.0000  5.11258E+02  171.651  0.00000E+00  1.00000E+00  1.00001  7.2498  1.0000E-10  1.0000E-10  2.9266E-04  2.5594E-04  1.0769E-10  3.6740E-05  1.0770E-10  2.9211E-04  2.9223E-04                                                                                                                                                                                                                                                                                                                                                                                                                                                                                                                                                                                                            
    1725.0000     125.0000   -4975.0000  5.11253E+02  172.017  0.00000E+00  1.00000E+00  1.00001  7.2462  1.0000E-10  1.0000E-10  2.9299E-04  2.5627E-04  1.0611E-10  3.6733E-05  1.0613E-10  2.9356E-04  2.9369E-04                                                                                                                                                                                                                                                                                                                                                                                                                                                                                                                                                                                                            
    1975.0000     125.0000   -4975.0000  5.11248E+02  172.372  0.00000E+00  1.00000E+00  1.00001  7.2408  1.0000E-10  1.0000E-10  2.9501E-04  2.5654E-04  1.0368E-10  3.6700E-05  1.0370E-10  2.9431E-04  2.9444E-04                                                                                                                                                                                                                                                                                                                                                                                                                                                                                                                                                                                                            
     125.0000     125.0000   -4725.0000  4.88540E+02  145.017  0.00000E+00  1.00000E+00  1.00000  7.5612  9.9805E-11  9.9805E-11  2.6999E-04  2.3173E-04  1.2019E-08  3.8221E-05  1.2019E-08  2.0294E-04  2.0350E-04                                                                                                                                                                                                                                                                                                                                                                                                                                                                                                                                                                                                            
     375.0000     125.0000   -4725.0000  4.88545E+02  144.180  0.00000E+00  1.00000E+00  1.00000  7.5727  9.9806E-11  9.9806E-11  2.6921E-04  2.3089E-04  1.6083E-08  3.8283E-05  1.6083E-08  2.0046E-04  2.0138E-04                                                                                                                                                                                                                                                                                                                                                                                                                                                                                                                                                                                                            
     625.0000     125.0000   -4725.0000  4.88550E+02  143.532  0.00000E+00  1.00000E+00  1.00000  7.5816  9.9807E-11  9.9807E-11  2.6862E-04  2.3025E-04  1.8053E-08  3.8335E-05  1.8053E-08  1.9860E-04  1.9969E-04                                                                                                                                                                                                                                                                                                                                                                                                                                                                                                                                                                                                            
     875.0000     125.0000   -4725.0000  4.88552E+02  143.167  0.00000E+00  1.00000E+00  1.00000  7.5867  9.9804E-11  9.9804E-11  2.6829E-04  2.2989E-04  1.9173E-08  3.8363E-05  1.9173E-08  1.9756E-04  1.9874E-04                                                                                                                                                                                                                                                                                                                                                                                                                                                                                                                                                                                                            
    1050.0000     125.0000   -4725.0000  4.88553E+02  143.104  0.00000E+00  1.00000E+00  1.00000  7.5876  9.9801E-11  9.9801E-11  2.6822E-04  2.2982E-04  1.9877E-08  3.8367E-05  1.9878E-08  1.9737E-04  1.9860E-04                                                                                                                                                                                                                                                                                                                                                                                                                                                                                                                                                                                                            
    1225.0000     125.0000   -4725.0000  4.88552E+02  143.167  0.00000E+00  1.00000E+00  1.00000  7.5867  9.9804E-11  9.9804E-11  2.6829E-04  2.2989E-04  1.9173E-08  3.8363E-05  1.9173E-08  1.9756E-04  1.9874E-04                                                                                                                                                                                                                                                                                                                                                                                                                                                                                                                                                                                                            
    1475.0000     125.0000   -4725.0000  4.88550E+02  143.532  0.00000E+00  1.00000E+00  1.00000  7.5816  9.9807E-11  9.9807E-11  2.6862E-04  2.3025E-04  1.8053E-08  3.8335E-05  1.8053E-08  1.9860E-04  1.9969E-04                                                                                                                                                                                                                                                                                                                                                                                                                                                                                                                                                                                                            
    1725.0000     125.0000   -4725.0000  4.88545E+02  144.180  0.00000E+00  1.00000E+00  1.00000  7.5727  9.9806E-11  9.9806E-11  2.6921E-04  2.3089E-04  1.6083E-08  3.8283E-05  1.6083E-08  2.0046E-04  2.0138E-04                                                                                                                                                                                                                                                                                                                                                                                                                                                                                                                                                                                                            