Title="TOUGHREACT V3.30-OMP: Aqueous Total & Species Concentrations in mol/kg h2o, Surface & Exchanged Species in mol/kg h2o, Dry blocks in mol/L medium"                                                                                                                                                                                                                                                                                                                                                                                                                                                                                                                                                                                                                                                                       
Variables= "X(m)"   "Y(m)"   "Z(m)"   "P(bar)"     "T(C)"   "SatGas"   "SatLiq"     "aH2O"       "pH"        "t_na+"        "t_cl-"      "t_hco3-"       "t_ca+2"      "t_so4-2"       "t_mg+2"       "t_ba+2"       "t_al+3"     "t_h4sio4"                                                                                                                                                                                                                                                                                                                                                                                                                                                                                                                                                                                    
Zone T= "1.00000000E+01 yr" I=      9J=     10K=     23F=Point 
     125.0000     125.0000   -5425.0000  5.51186E+02  202.209  0.00000E+00  1.00000E+00  1.00001  6.7472  9.9998E-11  9.9998E-11  8.9767E-04  2.7283E-04  1.0002E-10  3.3387E-05  1.0001E-10  3.2531E-04  3.2519E-04                                                                                                                                                                                                                                                                                                                                                                                                                                                                                                                                                                                                            
     375.0000     125.0000   -5425.0000  5.51191E+02  202.096  0.00000E+00  1.00000E+00  1.00001  6.7489  9.9997E-11  9.9998E-11  8.9296E-04  2.7279E-04  1.0002E-10  3.3399E-05  1.0001E-10  3.2522E-04  3.2509E-04                                                                                                                                                                                                                                                                                                                                                                                                                                                                                                                                                                                                            
     625.0000     125.0000   -5425.0000  5.51198E+02  201.973  0.00000E+00  1.00000E+00  1.00001  6.7508  9.9997E-11  9.9997E-11  8.8786E-04  2.7274E-04  1.0002E-10  3.3412E-05  1.0001E-10  3.2511E-04  3.2498E-04                                                                                                                                                                                                                                                                                                                                                                                                                                                                                                                                                                                                            
     875.0000     125.0000   -5425.0000  5.51202E+02  201.961  0.00000E+00  1.00000E+00  1.00001  6.7510  9.9997E-11  9.9997E-11  8.8738E-04  2.7274E-04  1.0002E-10  3.3413E-05  1.0001E-10  3.2510E-04  3.2497E-04                                                                                                                                                                                                                                                                                                                                                                                                                                                                                                                                                                                                            
    1050.0000     125.0000   -5425.0000  5.51201E+02  202.132  0.00000E+00  1.00000E+00  1.00001  6.7484  9.9998E-11  9.9998E-11  8.9445E-04  2.7280E-04  1.0002E-10  3.3395E-05  1.0001E-10  3.2525E-04  3.2511E-04                                                                                                                                                                                                                                                                                                                                                                                                                                                                                                                                                                                                            
    1225.0000     125.0000   -5425.0000  5.51202E+02  201.961  0.00000E+00  1.00000E+00  1.00001  6.7510  9.9997E-11  9.9997E-11  8.8738E-04  2.7274E-04  1.0002E-10  3.3413E-05  1.0001E-10  3.2510E-04  3.2497E-04                                                                                                                                                                                                                                                                                                                                                                                                                                                                                                                                                                                                            
    1475.0000     125.0000   -5425.0000  5.51198E+02  201.973  0.00000E+00  1.00000E+00  1.00001  6.7508  9.9997E-11  9.9997E-11  8.8786E-04  2.7274E-04  1.0002E-10  3.3412E-05  1.0001E-10  3.2511E-04  3.2498E-04                                                                                                                                                                                                                                                                                                                                                                                                                                                                                                                                                                                                            
    1725.0000     125.0000   -5425.0000  5.51191E+02  202.096  0.00000E+00  1.00000E+00  1.00001  6.7489  9.9997E-11  9.9998E-11  8.9296E-04  2.7279E-04  1.0002E-10  3.3399E-05  1.0001E-10  3.2522E-04  3.2509E-04                                                                                                                                                                                                                                                                                                                                                                                                                                                                                                                                                                                                            
    1975.0000     125.0000   -5425.0000  5.51186E+02  202.209  0.00000E+00  1.00000E+00  1.00001  6.7472  9.9998E-11  9.9998E-11  8.9767E-04  2.7283E-04  1.0002E-10  3.3387E-05  1.0001E-10  3.2531E-04  3.2519E-04                                                                                                                                                                                                                                                                                                                                                                                                                                                                                                                                                                                                            
     125.0000     125.0000   -5225.0000  5.33559E+02  193.007  0.00000E+00  1.00000E+00  1.00001  6.8913  9.9959E-11  9.9959E-11  5.9820E-04  2.6880E-04  9.9968E-11  3.4358E-05  9.9964E-11  3.1695E-04  3.1675E-04                                                                                                                                                                                                                                                                                                                                                                                                                                                                                                                                                                                                            
     375.0000     125.0000   -5225.0000  5.33563E+02  192.843  0.00000E+00  1.00000E+00  1.00001  6.8939  9.9958E-11  9.9958E-11  5.9418E-04  2.6871E-04  9.9967E-11  3.4375E-05  9.9963E-11  3.1679E-04  3.1660E-04                                                                                                                                                                                                                                                                                                                                                                                                                                                                                                                                                                                                            
     625.0000     125.0000   -5225.0000  5.33569E+02  192.658  0.00000E+00  1.00000E+00  1.00001  6.8969  9.9957E-11  9.9958E-11  5.8966E-04  2.6862E-04  9.9967E-11  3.4394E-05  9.9963E-11  3.1661E-04  3.1641E-04                                                                                                                                                                                                                                                                                                                                                                                                                                                                                                                                                                                                            
     875.0000     125.0000   -5225.0000  5.33573E+02  192.562  0.00000E+00  1.00000E+00  1.00001  6.8985  9.9957E-11  9.9957E-11  5.8733E-04  2.6857E-04  9.9966E-11  3.4405E-05  9.9963E-11  3.1652E-04  3.1632E-04                                                                                                                                                                                                                                                                                                                                                                                                                                                                                                                                                                                                            
    1050.0000     125.0000   -5225.0000  5.33574E+02  192.572  0.00000E+00  1.00000E+00  1.00001  6.8983  9.9957E-11  9.9957E-11  5.8758E-04  2.6858E-04  9.9967E-11  3.4403E-05  9.9963E-11  3.1653E-04  3.1633E-04                                                                                                                                                                                                                                                                                                                                                                                                                                                                                                                                                                                                            
    1225.0000     125.0000   -5225.0000  5.33573E+02  192.562  0.00000E+00  1.00000E+00  1.00001  6.8985  9.9957E-11  9.9957E-11  5.8733E-04  2.6857E-04  9.9966E-11  3.4405E-05  9.9963E-11  3.1652E-04  3.1632E-04                                                                                                                                                                                                                                                                                                                                                                                                                                                                                                                                                                                                            
    1475.0000     125.0000   -5225.0000  5.33569E+02  192.658  0.00000E+00  1.00000E+00  1.00001  6.8969  9.9957E-11  9.9958E-11  5.8966E-04  2.6862E-04  9.9967E-11  3.4394E-05  9.9963E-11  3.1661E-04  3.1641E-04                                                                                                                                                                                                                                                                                                                                                                                                                                                                                                                                                                                                            
    1725.0000     125.0000   -5225.0000  5.33563E+02  192.843  0.00000E+00  1.00000E+00  1.00001  6.8939  9.9958E-11  9.9958E-11  5.9418E-04  2.6871E-04  9.9967E-11  3.4375E-05  9.9963E-11  3.1679E-04  3.1660E-04                                                                                                                                                                                                                                                                                                                                                                                                                                                                                                                                                                                                            
    1975.0000     125.0000   -5225.0000  5.33559E+02  193.007  0.00000E+00  1.00000E+00  1.00001  6.8913  9.9959E-11  9.9959E-11  5.9820E-04  2.6880E-04  9.9968E-11  3.4358E-05  9.9964E-11  3.1695E-04  3.1675E-04                                                                                                                                                                                                                                                                                                                                                                                                                                                                                                                                                                                                            
     125.0000     125.0000   -4975.0000  5.11267E+02  172.526  0.00000E+00  1.00000E+00  1.00001  7.2380  1.0000E-10  1.0000E-10  2.9626E-04  2.5662E-04  1.0008E-10  3.6679E-05  1.0008E-10  2.9454E-04  2.9458E-04                                                                                                                                                                                                                                                                                                                                                                                                                                                                                                                                                                                                            
     375.0000     125.0000   -4975.0000  5.11272E+02  172.169  0.00000E+00  1.00000E+00  1.00001  7.2444  1.0000E-10  1.0000E-10  2.9338E-04  2.5639E-04  1.0028E-10  3.6725E-05  1.0028E-10  2.9411E-04  2.9416E-04                                                                                                                                                                                                                                                                                                                                                                                                                                                                                                                                                                                                            
     625.0000     125.0000   -4975.0000  5.11278E+02  171.803  0.00000E+00  1.00000E+00  1.00001  7.2483  1.0000E-10  1.0000E-10  2.9280E-04  2.5607E-04  1.0051E-10  3.6736E-05  1.0051E-10  2.9276E-04  2.9280E-04                                                                                                                                                                                                                                                                                                                                                                                                                                                                                                                                                                                                            
     875.0000     125.0000   -4975.0000  5.11281E+02  171.580  0.00000E+00  1.00000E+00  1.00001  7.2505  1.0000E-10  1.0000E-10  2.9260E-04  2.5586E-04  1.0070E-10  3.6740E-05  1.0071E-10  2.9188E-04  2.9192E-04                                                                                                                                                                                                                                                                                                                                                                                                                                                                                                                                                                                                            
    1050.0000     125.0000   -4975.0000  5.11282E+02  171.554  0.00000E+00  1.00000E+00  1.00001  7.2507  1.0000E-10  1.0000E-10  2.9257E-04  2.5584E-04  1.0083E-10  3.6741E-05  1.0083E-10  2.9177E-04  2.9181E-04                                                                                                                                                                                                                                                                                                                                                                                                                                                                                                                                                                                                            
    1225.0000     125.0000   -4975.0000  5.11281E+02  171.580  0.00000E+00  1.00000E+00  1.00001  7.2505  1.0000E-10  1.0000E-10  2.9260E-04  2.5586E-04  1.0070E-10  3.6740E-05  1.0071E-10  2.9188E-04  2.9192E-04                                                                                                                                                                                                                                                                                                                                                                                                                                                                                                                                                                                                            
    1475.0000     125.0000   -4975.0000  5.11278E+02  171.803  0.00000E+00  1.00000E+00  1.00001  7.2483  1.0000E-10  1.0000E-10  2.9280E-04  2.5607E-04  1.0051E-10  3.6736E-05  1.0051E-10  2.9276E-04  2.9280E-04                                                                                                                                                                                                                                                                                                                                                                                                                                                                                                                                                                                                            
    1725.0000     125.0000   -4975.0000  5.11272E+02  172.169  0.00000E+00  1.00000E+00  1.00001  7.2444  1.0000E-10  1.0000E-10  2.9338E-04  2.5639E-04  1.0028E-10  3.6725E-05  1.0028E-10  2.9411E-04  2.9416E-04                                                                                                                                                                                                                                                                                                                                                                                                                                                                                                                                                                                                            
    1975.0000     125.0000   -4975.0000  5.11267E+02  172.526  0.00000E+00  1.00000E+00  1.00001  7.2380  1.0000E-10  1.0000E-10  2.9626E-04  2.5662E-04  1.0008E-10  3.6679E-05  1.0008E-10  2.9454E-04  2.9458E-04                                                                                                                                                                                                                                                                                                                                                                                                                                                                                                                                                                                                            
     125.0000     125.0000   -4725.0000  4.88546E+02  145.099  0.00000E+00  1.00000E+00  1.00000  7.5594  9.9939E-11  9.9939E-11  2.7029E-04  2.3203E-04  1.2885E-09  3.8246E-05  1.2885E-09  2.0330E-04  2.0326E-04                                                                                                                                                                                                                                                                                                                                                                                                                                                                                                                                                                                                            
     375.0000     125.0000   -4725.0000  4.88552E+02  144.260  0.00000E+00  1.00000E+00  1.00000  7.5708  9.9940E-11  9.9940E-11  2.6954E-04  2.3122E-04  3.1877E-09  3.8313E-05  3.1877E-09  2.0088E-04  2.0101E-04                                                                                                                                                                                                                                                                                                                                                                                                                                                                                                                                                                                                            
     625.0000     125.0000   -4725.0000  4.88556E+02  143.610  0.00000E+00  1.00000E+00  1.00000  7.5797  9.9940E-11  9.9940E-11  2.6896E-04  2.3059E-04  4.6259E-09  3.8365E-05  4.6259E-09  1.9904E-04  1.9928E-04                                                                                                                                                                                                                                                                                                                                                                                                                                                                                                                                                                                                            
     875.0000     125.0000   -4725.0000  4.88559E+02  143.245  0.00000E+00  1.00000E+00  1.00000  7.5848  9.9936E-11  9.9936E-11  2.6863E-04  2.3023E-04  5.4956E-09  3.8394E-05  5.4956E-09  1.9801E-04  1.9832E-04                                                                                                                                                                                                                                                                                                                                                                                                                                                                                                                                                                                                            
    1050.0000     125.0000   -4725.0000  4.88559E+02  143.181  0.00000E+00  1.00000E+00  1.00000  7.5857  9.9933E-11  9.9933E-11  2.6857E-04  2.3016E-04  6.0286E-09  3.8399E-05  6.0286E-09  1.9782E-04  1.9817E-04                                                                                                                                                                                                                                                                                                                                                                                                                                                                                                                                                                                                            
    1225.0000     125.0000   -4725.0000  4.88559E+02  143.245  0.00000E+00  1.00000E+00  1.00000  7.5848  9.9936E-11  9.9936E-11  2.6863E-04  2.3023E-04  5.4956E-09  3.8394E-05  5.4956E-09  1.9801E-04  1.9832E-04                                                                                                                                                                                                                                                                                                                                                                                                                                                                                                                                                                                                            
    1475.0000     125.0000   -4725.0000  4.88556E+02  143.610  0.00000E+00  1.00000E+00  1.00000  7.5797  9.9940E-11  9.9940E-11  2.6896E-04  2.3059E-04  4.6259E-09  3.8365E-05  4.6259E-09  1.9904E-04  1.9928E-04                                                                                                                                                                                                                                                                                                                                                                                                                                                                                                                                                                                                            
    1725.0000     125.0000   -4725.0000  4.88552E+02  144.260  0.00000E+00  1.00000E+00  1.00000  7.5708  9.9940E-11  9.9940E-11  2.6954E-04  2.3122E-04  3.1877E-09  3.8313E-05  3.1877E-09  2.0088E-04  2.0101E-04                                                                                                                                                                                                                                                                                                                                                                                                                                                                                                                                                                                                            