Title="TOUGHREACT V3.30-OMP: Mineral Abundances(Total or Changes) and/or Exchanged Species: Change in volume fraction"                                                                                                                                                                                                                                                                                                                                                                                                                                                                                                                                                                                                                                                                                                          
Variables= "X(m)"   "Y(m)"   "Z(m)"       "T(C)"   "Porosity"  "Poros_Chg" "Permx(m^2)"     "Kx/Kx0" "Permz(m^2)"     "Kz/Kz0" "quartz(alpha"     "dolomite"    "kaolinite"      "calcite"       "barite"    "anorthite"                                                                                                                                                                                                                                                                                                                                                                                                                                                                                                                                                                                                        
Zone T= "3.16887907E-02 yr" I=      9J=     10K=     23F=Point 
     125.0000     125.0000   -5425.0000  202.396  0.19724  1.46078E-06  1.00000E-16  1.0000E+00  1.00000E-16  1.0000E+00  0.0000E+00 -3.4159E-07 -1.2038E-05 -4.9263E-06  0.0000E+00  9.6054E-06                                                                                                                                                                                                                                                                                                                                                                                                                                                                                                                                                                                                                                
     375.0000     125.0000   -5425.0000  202.283  0.19724  1.45462E-06  1.00000E-16  1.0000E+00  1.00000E-16  1.0000E+00  0.0000E+00 -3.4180E-07 -1.1965E-05 -4.8995E-06  0.0000E+00  9.5321E-06                                                                                                                                                                                                                                                                                                                                                                                                                                                                                                                                                                                                                                
     625.0000     125.0000   -5425.0000  202.160  0.19724  1.44793E-06  1.00000E-16  1.0000E+00  1.00000E-16  1.0000E+00  0.0000E+00 -3.4203E-07 -1.1887E-05 -4.8704E-06  0.0000E+00  9.4525E-06                                                                                                                                                                                                                                                                                                                                                                                                                                                                                                                                                                                                                                
     875.0000     125.0000   -5425.0000  202.149  0.19724  1.44708E-06  1.00000E-16  1.0000E+00  1.00000E-16  1.0000E+00  0.0000E+00 -3.4205E-07 -1.1879E-05 -4.8677E-06  0.0000E+00  9.4452E-06                                                                                                                                                                                                                                                                                                                                                                                                                                                                                                                                                                                                                                
    1050.0000     125.0000   -5425.0000  202.338  0.19724  1.45107E-06  1.00000E-16  1.0000E+00  1.00000E-16  1.0000E+00  0.0000E+00 -3.4170E-07 -1.2000E-05 -4.9125E-06  0.0000E+00  9.5675E-06                                                                                                                                                                                                                                                                                                                                                                                                                                                                                                                                                                                                                                
    1225.0000     125.0000   -5425.0000  202.149  0.19724  1.44708E-06  1.00000E-16  1.0000E+00  1.00000E-16  1.0000E+00  0.0000E+00 -3.4205E-07 -1.1879E-05 -4.8677E-06  0.0000E+00  9.4452E-06                                                                                                                                                                                                                                                                                                                                                                                                                                                                                                                                                                                                                                
    1475.0000     125.0000   -5425.0000  202.160  0.19724  1.44792E-06  1.00000E-16  1.0000E+00  1.00000E-16  1.0000E+00  0.0000E+00 -3.4203E-07 -1.1887E-05 -4.8704E-06  0.0000E+00  9.4525E-06                                                                                                                                                                                                                                                                                                                                                                                                                                                                                                                                                                                                                                
    1725.0000     125.0000   -5425.0000  202.283  0.19724  1.45461E-06  1.00000E-16  1.0000E+00  1.00000E-16  1.0000E+00  0.0000E+00 -3.4180E-07 -1.1965E-05 -4.8995E-06  0.0000E+00  9.5321E-06                                                                                                                                                                                                                                                                                                                                                                                                                                                                                                                                                                                                                                
    1975.0000     125.0000   -5425.0000  202.396  0.19724  1.46079E-06  1.00000E-16  1.0000E+00  1.00000E-16  1.0000E+00  0.0000E+00 -3.4159E-07 -1.2038E-05 -4.9263E-06  0.0000E+00  9.6054E-06                                                                                                                                                                                                                                                                                                                                                                                                                                                                                                                                                                                                                                
     125.0000     125.0000   -5225.0000  193.095  0.19739  1.10132E-06  1.00000E-16  1.0000E+00  1.00000E-16  1.0000E+00  0.0000E+00 -3.5828E-07 -7.3332E-06 -3.1813E-06  0.0000E+00  4.8524E-06                                                                                                                                                                                                                                                                                                                                                                                                                                                                                                                                                                                                                                
     375.0000     125.0000   -5225.0000  192.931  0.19739  1.09601E-06  1.00000E-16  1.0000E+00  1.00000E-16  1.0000E+00  0.0000E+00 -3.5859E-07 -7.2705E-06 -3.1580E-06  0.0000E+00  4.7891E-06                                                                                                                                                                                                                                                                                                                                                                                                                                                                                                                                                                                                                                
     625.0000     125.0000   -5225.0000  192.746  0.19738  1.09003E-06  1.00000E-16  1.0000E+00  1.00000E-16  1.0000E+00  0.0000E+00 -3.5893E-07 -7.2000E-06 -3.1318E-06  0.0000E+00  4.7181E-06                                                                                                                                                                                                                                                                                                                                                                                                                                                                                                                                                                                                                                
     875.0000     125.0000   -5225.0000  192.650  0.19738  1.08684E-06  1.00000E-16  1.0000E+00  1.00000E-16  1.0000E+00  0.0000E+00 -3.5911E-07 -7.1636E-06 -3.1183E-06  0.0000E+00  4.6815E-06                                                                                                                                                                                                                                                                                                                                                                                                                                                                                                                                                                                                                                
    1050.0000     125.0000   -5225.0000  192.660  0.19738  1.08686E-06  1.00000E-16  1.0000E+00  1.00000E-16  1.0000E+00  0.0000E+00 -3.5909E-07 -7.1676E-06 -3.1198E-06  0.0000E+00  4.6855E-06                                                                                                                                                                                                                                                                                                                                                                                                                                                                                                                                                                                                                                
    1225.0000     125.0000   -5225.0000  192.650  0.19738  1.08684E-06  1.00000E-16  1.0000E+00  1.00000E-16  1.0000E+00  0.0000E+00 -3.5911E-07 -7.1636E-06 -3.1183E-06  0.0000E+00  4.6815E-06                                                                                                                                                                                                                                                                                                                                                                                                                                                                                                                                                                                                                                
    1475.0000     125.0000   -5225.0000  192.746  0.19738  1.09003E-06  1.00000E-16  1.0000E+00  1.00000E-16  1.0000E+00  0.0000E+00 -3.5893E-07 -7.2000E-06 -3.1318E-06  0.0000E+00  4.7181E-06                                                                                                                                                                                                                                                                                                                                                                                                                                                                                                                                                                                                                                
    1725.0000     125.0000   -5225.0000  192.931  0.19739  1.09601E-06  1.00000E-16  1.0000E+00  1.00000E-16  1.0000E+00  0.0000E+00 -3.5859E-07 -7.2705E-06 -3.1580E-06  0.0000E+00  4.7891E-06                                                                                                                                                                                                                                                                                                                                                                                                                                                                                                                                                                                                                                
    1975.0000     125.0000   -5225.0000  193.095  0.19739  1.10132E-06  1.00000E-16  1.0000E+00  1.00000E-16  1.0000E+00  0.0000E+00 -3.5828E-07 -7.3332E-06 -3.1813E-06  0.0000E+00  4.8524E-06                                                                                                                                                                                                                                                                                                                                                                                                                                                                                                                                                                                                                                
     125.0000     125.0000   -4975.0000  172.596  0.19750  6.98669E-07  1.00000E-16  1.0000E+00  1.00000E-16  1.0000E+00  0.0000E+00 -3.9795E-07 -2.5260E-06 -1.3915E-06  0.0000E+00  5.9470E-08                                                                                                                                                                                                                                                                                                                                                                                                                                                                                                                                                                                                                                
     375.0000     125.0000   -4975.0000  172.239  0.19750  6.94237E-07  1.00000E-16  1.0000E+00  1.00000E-16  1.0000E+00  0.0000E+00 -3.9872E-07 -2.4788E-06 -1.3739E-06  0.0000E+00  1.3494E-08                                                                                                                                                                                                                                                                                                                                                                                                                                                                                                                                                                                                                                
     625.0000     125.0000   -4975.0000  171.873  0.19750  6.90915E-07  1.00000E-16  1.0000E+00  1.00000E-16  1.0000E+00  0.0000E+00 -3.9921E-07 -2.4576E-06 -1.3679E-06  0.0000E+00  0.0000E+00                                                                                                                                                                                                                                                                                                                                                                                                                                                                                                                                                                                                                                
     875.0000     125.0000   -4975.0000  171.650  0.19749  6.89103E-07  1.00000E-16  1.0000E+00  1.00000E-16  1.0000E+00  0.0000E+00 -3.9943E-07 -2.4512E-06 -1.3672E-06  0.0000E+00  0.0000E+00                                                                                                                                                                                                                                                                                                                                                                                                                                                                                                                                                                                                                                
    1050.0000     125.0000   -4975.0000  171.624  0.19749  6.88859E-07  1.00000E-16  1.0000E+00  1.00000E-16  1.0000E+00  0.0000E+00 -3.9946E-07 -2.4505E-06 -1.3671E-06  0.0000E+00  0.0000E+00                                                                                                                                                                                                                                                                                                                                                                                                                                                                                                                                                                                                                                
    1225.0000     125.0000   -4975.0000  171.650  0.19749  6.89102E-07  1.00000E-16  1.0000E+00  1.00000E-16  1.0000E+00  0.0000E+00 -3.9943E-07 -2.4512E-06 -1.3672E-06  0.0000E+00  0.0000E+00                                                                                                                                                                                                                                                                                                                                                                                                                                                                                                                                                                                                                                
    1475.0000     125.0000   -4975.0000  171.873  0.19750  6.90915E-07  1.00000E-16  1.0000E+00  1.00000E-16  1.0000E+00  0.0000E+00 -3.9921E-07 -2.4576E-06 -1.3679E-06  0.0000E+00  0.0000E+00                                                                                                                                                                                                                                                                                                                                                                                                                                                                                                                                                                                                                                
    1725.0000     125.0000   -4975.0000  172.239  0.19750  6.94234E-07  1.00000E-16  1.0000E+00  1.00000E-16  1.0000E+00  0.0000E+00 -3.9872E-07 -2.4788E-06 -1.3739E-06  0.0000E+00  1.3494E-08                                                                                                                                                                                                                                                                                                                                                                                                                                                                                                                                                                                                                                
    1975.0000     125.0000   -4975.0000  172.596  0.19750  6.98670E-07  1.00000E-16  1.0000E+00  1.00000E-16  1.0000E+00  0.0000E+00 -3.9795E-07 -2.5260E-06 -1.3915E-06  0.0000E+00  5.9469E-08                                                                                                                                                                                                                                                                                                                                                                                                                                                                                                                                                                                                                                
     125.0000     125.0000   -4725.0000  145.137  0.19754  5.58901E-07  1.00000E-16  1.0000E+00  1.00000E-16  1.0000E+00  0.0000E+00 -4.3565E-07 -1.7871E-06 -1.2668E-06  0.0000E+00  0.0000E+00                                                                                                                                                                                                                                                                                                                                                                                                                                                                                                                                                                                                                                
     375.0000     125.0000   -4725.0000  144.296  0.19754  5.52750E-07  1.00000E-16  1.0000E+00  1.00000E-16  1.0000E+00  0.0000E+00 -4.3708E-07 -1.7689E-06 -1.2630E-06  0.0000E+00  0.0000E+00                                                                                                                                                                                                                                                                                                                                                                                                                                                                                                                                                                                                                                
     625.0000     125.0000   -4725.0000  143.647  0.19754  5.48382E-07  1.00000E-16  1.0000E+00  1.00000E-16  1.0000E+00  0.0000E+00 -4.3819E-07 -1.7550E-06 -1.2600E-06  0.0000E+00  0.0000E+00                                                                                                                                                                                                                                                                                                                                                                                                                                                                                                                                                                                                                                
     875.0000     125.0000   -4725.0000  143.281  0.19753  5.45984E-07  1.00000E-16  1.0000E+00  1.00000E-16  1.0000E+00  0.0000E+00 -4.3882E-07 -1.7472E-06 -1.2583E-06  0.0000E+00  0.0000E+00                                                                                                                                                                                                                                                                                                                                                                                                                                                                                                                                                                                                                                
    1050.0000     125.0000   -4725.0000  143.217  0.19753  5.45490E-07  1.00000E-16  1.0000E+00  1.00000E-16  1.0000E+00  0.0000E+00 -4.3894E-07 -1.7459E-06 -1.2580E-06  0.0000E+00  0.0000E+00                                                                                                                                                                                                                                                                                                                                                                                                                                                                                                                                                                                                                                
    1225.0000     125.0000   -4725.0000  143.281  0.19753  5.45984E-07  1.00000E-16  1.0000E+00  1.00000E-16  1.0000E+00  0.0000E+00 -4.3882E-07 -1.7472E-06 -1.2583E-06  0.0000E+00  0.0000E+00                                                                                                                                                                                                                                                                                                                                                                                                                                                                                                                                                                                                                                
    1475.0000     125.0000   -4725.0000  143.647  0.19754  5.48382E-07  1.00000E-16  1.0000E+00  1.00000E-16  1.0000E+00  0.0000E+00 -4.3819E-07 -1.7550E-06 -1.2600E-06  0.0000E+00  0.0000E+00                                                                                                                                                                                                                                                                                                                                                                                                                                                                                                                                                                                                                                
    1725.0000     125.0000   -4725.0000  144.296  0.19754  5.52750E-07  1.00000E-16  1.0000E+00  1.00000E-16  1.0000E+00  0.0000E+00 -4.3708E-07 -1.7689E-06 -1.2630E-06  0.0000E+00  0.0000E+00                                                                                                                                                                                                                                                                                                                                                                                                                                                                                                                                                                                                                                