Title="TOUGHREACT V3.30-OMP: Mineral Abundances(Total or Changes) and/or Exchanged Species: Change in volume fraction"                                                                                                                                                                                                                                                                                                                                                                                                                                                                                                                                                                                                                                                                                                          
Variables= "X(m)"   "Y(m)"   "Z(m)"       "T(C)"   "Porosity"  "Poros_Chg" "Permx(m^2)"     "Kx/Kx0" "Permz(m^2)"     "Kz/Kz0" "quartz(alpha"     "dolomite"    "kaolinite"      "calcite"       "barite"    "anorthite"                                                                                                                                                                                                                                                                                                                                                                                                                                                                                                                                                                                                        
Zone T= "1.64274691E-02 yr" I=      9J=     10K=     23F=Point 
     125.0000     125.0000   -5425.0000  202.396  0.19724  1.47275E-06  1.00000E-16  1.0000E+00  1.00000E-16  1.0000E+00  0.0000E+00 -3.4159E-07 -1.2038E-05 -4.9264E-06  0.0000E+00  9.6056E-06                                                                                                                                                                                                                                                                                                                                                                                                                                                                                                                                                                                                                                
     375.0000     125.0000   -5425.0000  202.283  0.19724  1.46674E-06  1.00000E-16  1.0000E+00  1.00000E-16  1.0000E+00  0.0000E+00 -3.4180E-07 -1.1965E-05 -4.8996E-06  0.0000E+00  9.5322E-06                                                                                                                                                                                                                                                                                                                                                                                                                                                                                                                                                                                                                                
     625.0000     125.0000   -5425.0000  202.160  0.19724  1.46023E-06  1.00000E-16  1.0000E+00  1.00000E-16  1.0000E+00  0.0000E+00 -3.4203E-07 -1.1887E-05 -4.8704E-06  0.0000E+00  9.4527E-06                                                                                                                                                                                                                                                                                                                                                                                                                                                                                                                                                                                                                                
     875.0000     125.0000   -5425.0000  202.149  0.19724  1.45952E-06  1.00000E-16  1.0000E+00  1.00000E-16  1.0000E+00  0.0000E+00 -3.4205E-07 -1.1880E-05 -4.8678E-06  0.0000E+00  9.4454E-06                                                                                                                                                                                                                                                                                                                                                                                                                                                                                                                                                                                                                                
    1050.0000     125.0000   -5425.0000  202.338  0.19724  1.46613E-06  1.00000E-16  1.0000E+00  1.00000E-16  1.0000E+00  0.0000E+00 -3.4170E-07 -1.2000E-05 -4.9125E-06  0.0000E+00  9.5676E-06                                                                                                                                                                                                                                                                                                                                                                                                                                                                                                                                                                                                                                
    1225.0000     125.0000   -5425.0000  202.149  0.19724  1.45952E-06  1.00000E-16  1.0000E+00  1.00000E-16  1.0000E+00  0.0000E+00 -3.4205E-07 -1.1880E-05 -4.8678E-06  0.0000E+00  9.4454E-06                                                                                                                                                                                                                                                                                                                                                                                                                                                                                                                                                                                                                                
    1475.0000     125.0000   -5425.0000  202.160  0.19724  1.46022E-06  1.00000E-16  1.0000E+00  1.00000E-16  1.0000E+00  0.0000E+00 -3.4203E-07 -1.1887E-05 -4.8704E-06  0.0000E+00  9.4527E-06                                                                                                                                                                                                                                                                                                                                                                                                                                                                                                                                                                                                                                
    1725.0000     125.0000   -5425.0000  202.283  0.19724  1.46674E-06  1.00000E-16  1.0000E+00  1.00000E-16  1.0000E+00  0.0000E+00 -3.4180E-07 -1.1965E-05 -4.8996E-06  0.0000E+00  9.5322E-06                                                                                                                                                                                                                                                                                                                                                                                                                                                                                                                                                                                                                                
    1975.0000     125.0000   -5425.0000  202.396  0.19724  1.47275E-06  1.00000E-16  1.0000E+00  1.00000E-16  1.0000E+00  0.0000E+00 -3.4159E-07 -1.2038E-05 -4.9264E-06  0.0000E+00  9.6056E-06                                                                                                                                                                                                                                                                                                                                                                                                                                                                                                                                                                                                                                
     125.0000     125.0000   -5225.0000  193.095  0.19739  1.10761E-06  1.00000E-16  1.0000E+00  1.00000E-16  1.0000E+00  0.0000E+00 -3.5828E-07 -7.3333E-06 -3.1813E-06  0.0000E+00  4.8525E-06                                                                                                                                                                                                                                                                                                                                                                                                                                                                                                                                                                                                                                
     375.0000     125.0000   -5225.0000  192.931  0.19739  1.10240E-06  1.00000E-16  1.0000E+00  1.00000E-16  1.0000E+00  0.0000E+00 -3.5859E-07 -7.2705E-06 -3.1580E-06  0.0000E+00  4.7892E-06                                                                                                                                                                                                                                                                                                                                                                                                                                                                                                                                                                                                                                
     625.0000     125.0000   -5225.0000  192.746  0.19738  1.09655E-06  1.00000E-16  1.0000E+00  1.00000E-16  1.0000E+00  0.0000E+00 -3.5893E-07 -7.2000E-06 -3.1318E-06  0.0000E+00  4.7182E-06                                                                                                                                                                                                                                                                                                                                                                                                                                                                                                                                                                                                                                
     875.0000     125.0000   -5225.0000  192.650  0.19738  1.09347E-06  1.00000E-16  1.0000E+00  1.00000E-16  1.0000E+00  0.0000E+00 -3.5911E-07 -7.1637E-06 -3.1183E-06  0.0000E+00  4.6815E-06                                                                                                                                                                                                                                                                                                                                                                                                                                                                                                                                                                                                                                
    1050.0000     125.0000   -5225.0000  192.661  0.19738  1.09364E-06  1.00000E-16  1.0000E+00  1.00000E-16  1.0000E+00  0.0000E+00 -3.5909E-07 -7.1677E-06 -3.1198E-06  0.0000E+00  4.6855E-06                                                                                                                                                                                                                                                                                                                                                                                                                                                                                                                                                                                                                                
    1225.0000     125.0000   -5225.0000  192.650  0.19738  1.09347E-06  1.00000E-16  1.0000E+00  1.00000E-16  1.0000E+00  0.0000E+00 -3.5911E-07 -7.1637E-06 -3.1183E-06  0.0000E+00  4.6815E-06                                                                                                                                                                                                                                                                                                                                                                                                                                                                                                                                                                                                                                
    1475.0000     125.0000   -5225.0000  192.746  0.19738  1.09655E-06  1.00000E-16  1.0000E+00  1.00000E-16  1.0000E+00  0.0000E+00 -3.5893E-07 -7.2000E-06 -3.1318E-06  0.0000E+00  4.7182E-06                                                                                                                                                                                                                                                                                                                                                                                                                                                                                                                                                                                                                                
    1725.0000     125.0000   -5225.0000  192.931  0.19739  1.10240E-06  1.00000E-16  1.0000E+00  1.00000E-16  1.0000E+00  0.0000E+00 -3.5859E-07 -7.2705E-06 -3.1580E-06  0.0000E+00  4.7892E-06                                                                                                                                                                                                                                                                                                                                                                                                                                                                                                                                                                                                                                
    1975.0000     125.0000   -5225.0000  193.095  0.19739  1.10761E-06  1.00000E-16  1.0000E+00  1.00000E-16  1.0000E+00  0.0000E+00 -3.5828E-07 -7.3333E-06 -3.1813E-06  0.0000E+00  4.8525E-06                                                                                                                                                                                                                                                                                                                                                                                                                                                                                                                                                                                                                                
     125.0000     125.0000   -4975.0000  172.596  0.19750  7.07304E-07  1.00000E-16  1.0000E+00  1.00000E-16  1.0000E+00  0.0000E+00 -3.9795E-07 -2.5261E-06 -1.3915E-06  0.0000E+00  5.9484E-08                                                                                                                                                                                                                                                                                                                                                                                                                                                                                                                                                                                                                                
     375.0000     125.0000   -4975.0000  172.239  0.19750  7.02949E-07  1.00000E-16  1.0000E+00  1.00000E-16  1.0000E+00  0.0000E+00 -3.9872E-07 -2.4789E-06 -1.3739E-06  0.0000E+00  1.3508E-08                                                                                                                                                                                                                                                                                                                                                                                                                                                                                                                                                                                                                                
     625.0000     125.0000   -4975.0000  171.873  0.19750  6.99546E-07  1.00000E-16  1.0000E+00  1.00000E-16  1.0000E+00  0.0000E+00 -3.9921E-07 -2.4576E-06 -1.3679E-06  0.0000E+00  0.0000E+00                                                                                                                                                                                                                                                                                                                                                                                                                                                                                                                                                                                                                                
     875.0000     125.0000   -4975.0000  171.650  0.19749  6.97687E-07  1.00000E-16  1.0000E+00  1.00000E-16  1.0000E+00  0.0000E+00 -3.9943E-07 -2.4512E-06 -1.3672E-06  0.0000E+00  0.0000E+00                                                                                                                                                                                                                                                                                                                                                                                                                                                                                                                                                                                                                                
    1050.0000     125.0000   -4975.0000  171.624  0.19749  6.97452E-07  1.00000E-16  1.0000E+00  1.00000E-16  1.0000E+00  0.0000E+00 -3.9946E-07 -2.4505E-06 -1.3671E-06  0.0000E+00  0.0000E+00                                                                                                                                                                                                                                                                                                                                                                                                                                                                                                                                                                                                                                
    1225.0000     125.0000   -4975.0000  171.650  0.19749  6.97686E-07  1.00000E-16  1.0000E+00  1.00000E-16  1.0000E+00  0.0000E+00 -3.9943E-07 -2.4512E-06 -1.3672E-06  0.0000E+00  0.0000E+00                                                                                                                                                                                                                                                                                                                                                                                                                                                                                                                                                                                                                                
    1475.0000     125.0000   -4975.0000  171.873  0.19750  6.99546E-07  1.00000E-16  1.0000E+00  1.00000E-16  1.0000E+00  0.0000E+00 -3.9921E-07 -2.4576E-06 -1.3679E-06  0.0000E+00  0.0000E+00                                                                                                                                                                                                                                                                                                                                                                                                                                                                                                                                                                                                                                
    1725.0000     125.0000   -4975.0000  172.239  0.19750  7.02947E-07  1.00000E-16  1.0000E+00  1.00000E-16  1.0000E+00  0.0000E+00 -3.9872E-07 -2.4789E-06 -1.3739E-06  0.0000E+00  1.3508E-08                                                                                                                                                                                                                                                                                                                                                                                                                                                                                                                                                                                                                                
    1975.0000     125.0000   -4975.0000  172.596  0.19750  7.07306E-07  1.00000E-16  1.0000E+00  1.00000E-16  1.0000E+00  0.0000E+00 -3.9795E-07 -2.5261E-06 -1.3915E-06  0.0000E+00  5.9484E-08                                                                                                                                                                                                                                                                                                                                                                                                                                                                                                                                                                                                                                
     125.0000     125.0000   -4725.0000  145.137  0.19754  5.39031E-07  1.00000E-16  1.0000E+00  1.00000E-16  1.0000E+00  0.0000E+00 -4.3565E-07 -1.7871E-06 -1.2668E-06  0.0000E+00  0.0000E+00                                                                                                                                                                                                                                                                                                                                                                                                                                                                                                                                                                                                                                
     375.0000     125.0000   -4725.0000  144.296  0.19754  5.33455E-07  1.00000E-16  1.0000E+00  1.00000E-16  1.0000E+00  0.0000E+00 -4.3708E-07 -1.7689E-06 -1.2630E-06  0.0000E+00  0.0000E+00                                                                                                                                                                                                                                                                                                                                                                                                                                                                                                                                                                                                                                
     625.0000     125.0000   -4725.0000  143.647  0.19754  5.29359E-07  1.00000E-16  1.0000E+00  1.00000E-16  1.0000E+00  0.0000E+00 -4.3819E-07 -1.7550E-06 -1.2600E-06  0.0000E+00  0.0000E+00                                                                                                                                                                                                                                                                                                                                                                                                                                                                                                                                                                                                                                
     875.0000     125.0000   -4725.0000  143.281  0.19753  5.27097E-07  1.00000E-16  1.0000E+00  1.00000E-16  1.0000E+00  0.0000E+00 -4.3882E-07 -1.7472E-06 -1.2583E-06  0.0000E+00  0.0000E+00                                                                                                                                                                                                                                                                                                                                                                                                                                                                                                                                                                                                                                
    1050.0000     125.0000   -4725.0000  143.217  0.19753  5.26669E-07  1.00000E-16  1.0000E+00  1.00000E-16  1.0000E+00  0.0000E+00 -4.3894E-07 -1.7458E-06 -1.2580E-06  0.0000E+00  0.0000E+00                                                                                                                                                                                                                                                                                                                                                                                                                                                                                                                                                                                                                                
    1225.0000     125.0000   -4725.0000  143.281  0.19753  5.27097E-07  1.00000E-16  1.0000E+00  1.00000E-16  1.0000E+00  0.0000E+00 -4.3882E-07 -1.7472E-06 -1.2583E-06  0.0000E+00  0.0000E+00                                                                                                                                                                                                                                                                                                                                                                                                                                                                                                                                                                                                                                
    1475.0000     125.0000   -4725.0000  143.647  0.19754  5.29359E-07  1.00000E-16  1.0000E+00  1.00000E-16  1.0000E+00  0.0000E+00 -4.3819E-07 -1.7550E-06 -1.2600E-06  0.0000E+00  0.0000E+00                                                                                                                                                                                                                                                                                                                                                                                                                                                                                                                                                                                                                                
    1725.0000     125.0000   -4725.0000  144.296  0.19754  5.33455E-07  1.00000E-16  1.0000E+00  1.00000E-16  1.0000E+00  0.0000E+00 -4.3708E-07 -1.7689E-06 -1.2630E-06  0.0000E+00  0.0000E+00                                                                                                                                                                                                                                                                                                                                                                                                                                                                                                                                                                                                                                