Title="TOUGHREACT V3.30-OMP: Mineral Abundances(Total or Changes) and/or Exchanged Species: Change in volume fraction"                                                                                                                                                                                                                                                                                                                                                                                                                                                                                                                                                                                                                                                                                                          
Variables= "X(m)"   "Y(m)"   "Z(m)"       "T(C)"   "Porosity"  "Poros_Chg" "Permx(m^2)"     "Kx/Kx0" "Permz(m^2)"     "Kz/Kz0" "quartz(alpha"     "dolomite"    "kaolinite"      "calcite"       "barite"    "anorthite"                                                                                                                                                                                                                                                                                                                                                                                                                                                                                                                                                                                                        
Zone T= "3.16887907E-01 yr" I=      9J=     10K=     23F=Point 
     125.0000     125.0000   -5425.0000  202.391  0.19724  1.24986E-06  1.00000E-16  1.0000E+00  1.00000E-16  1.0000E+00  0.0000E+00 -3.4160E-07 -1.2034E-05 -4.9250E-06  0.0000E+00  9.6018E-06                                                                                                                                                                                                                                                                                                                                                                                                                                                                                                                                                                                                                                
     375.0000     125.0000   -5425.0000  202.278  0.19724  1.24106E-06  1.00000E-16  1.0000E+00  1.00000E-16  1.0000E+00  0.0000E+00 -3.4181E-07 -1.1962E-05 -4.8981E-06  0.0000E+00  9.5284E-06                                                                                                                                                                                                                                                                                                                                                                                                                                                                                                                                                                                                                                
     625.0000     125.0000   -5425.0000  202.155  0.19724  1.23123E-06  1.00000E-16  1.0000E+00  1.00000E-16  1.0000E+00  0.0000E+00 -3.4203E-07 -1.1883E-05 -4.8690E-06  0.0000E+00  9.4488E-06                                                                                                                                                                                                                                                                                                                                                                                                                                                                                                                                                                                                                                
     875.0000     125.0000   -5425.0000  202.143  0.19724  1.22537E-06  1.00000E-16  1.0000E+00  1.00000E-16  1.0000E+00  0.0000E+00 -3.4205E-07 -1.1876E-05 -4.8664E-06  0.0000E+00  9.4416E-06                                                                                                                                                                                                                                                                                                                                                                                                                                                                                                                                                                                                                                
    1050.0000     125.0000   -5425.0000  202.332  0.19724  1.20324E-06  1.00000E-16  1.0000E+00  1.00000E-16  1.0000E+00  0.0000E+00 -3.4171E-07 -1.1996E-05 -4.9110E-06  0.0000E+00  9.5634E-06                                                                                                                                                                                                                                                                                                                                                                                                                                                                                                                                                                                                                                
    1225.0000     125.0000   -5425.0000  202.143  0.19724  1.22536E-06  1.00000E-16  1.0000E+00  1.00000E-16  1.0000E+00  0.0000E+00 -3.4205E-07 -1.1876E-05 -4.8664E-06  0.0000E+00  9.4416E-06                                                                                                                                                                                                                                                                                                                                                                                                                                                                                                                                                                                                                                
    1475.0000     125.0000   -5425.0000  202.155  0.19724  1.23123E-06  1.00000E-16  1.0000E+00  1.00000E-16  1.0000E+00  0.0000E+00 -3.4203E-07 -1.1883E-05 -4.8690E-06  0.0000E+00  9.4488E-06                                                                                                                                                                                                                                                                                                                                                                                                                                                                                                                                                                                                                                
    1725.0000     125.0000   -5425.0000  202.278  0.19724  1.24107E-06  1.00000E-16  1.0000E+00  1.00000E-16  1.0000E+00  0.0000E+00 -3.4181E-07 -1.1962E-05 -4.8981E-06  0.0000E+00  9.5284E-06                                                                                                                                                                                                                                                                                                                                                                                                                                                                                                                                                                                                                                
    1975.0000     125.0000   -5425.0000  202.391  0.19724  1.24986E-06  1.00000E-16  1.0000E+00  1.00000E-16  1.0000E+00  0.0000E+00 -3.4160E-07 -1.2034E-05 -4.9250E-06  0.0000E+00  9.6018E-06                                                                                                                                                                                                                                                                                                                                                                                                                                                                                                                                                                                                                                
     125.0000     125.0000   -5225.0000  193.092  0.19739  9.74847E-07  1.00000E-16  1.0000E+00  1.00000E-16  1.0000E+00  0.0000E+00 -3.5829E-07 -7.3322E-06 -3.1809E-06  0.0000E+00  4.8514E-06                                                                                                                                                                                                                                                                                                                                                                                                                                                                                                                                                                                                                                
     375.0000     125.0000   -5225.0000  192.929  0.19739  9.67619E-07  1.00000E-16  1.0000E+00  1.00000E-16  1.0000E+00  0.0000E+00 -3.5860E-07 -7.2695E-06 -3.1576E-06  0.0000E+00  4.7882E-06                                                                                                                                                                                                                                                                                                                                                                                                                                                                                                                                                                                                                                
     625.0000     125.0000   -5225.0000  192.744  0.19738  9.59511E-07  1.00000E-16  1.0000E+00  1.00000E-16  1.0000E+00  0.0000E+00 -3.5894E-07 -7.1990E-06 -3.1315E-06  0.0000E+00  4.7171E-06                                                                                                                                                                                                                                                                                                                                                                                                                                                                                                                                                                                                                                
     875.0000     125.0000   -5225.0000  192.647  0.19738  9.53959E-07  1.00000E-16  1.0000E+00  1.00000E-16  1.0000E+00  0.0000E+00 -3.5912E-07 -7.1627E-06 -3.1180E-06  0.0000E+00  4.6805E-06                                                                                                                                                                                                                                                                                                                                                                                                                                                                                                                                                                                                                                
    1050.0000     125.0000   -5225.0000  192.658  0.19738  9.50941E-07  1.00000E-16  1.0000E+00  1.00000E-16  1.0000E+00  0.0000E+00 -3.5910E-07 -7.1667E-06 -3.1194E-06  0.0000E+00  4.6845E-06                                                                                                                                                                                                                                                                                                                                                                                                                                                                                                                                                                                                                                
    1225.0000     125.0000   -5225.0000  192.647  0.19738  9.53955E-07  1.00000E-16  1.0000E+00  1.00000E-16  1.0000E+00  0.0000E+00 -3.5912E-07 -7.1627E-06 -3.1180E-06  0.0000E+00  4.6805E-06                                                                                                                                                                                                                                                                                                                                                                                                                                                                                                                                                                                                                                
    1475.0000     125.0000   -5225.0000  192.744  0.19738  9.59511E-07  1.00000E-16  1.0000E+00  1.00000E-16  1.0000E+00  0.0000E+00 -3.5894E-07 -7.1990E-06 -3.1315E-06  0.0000E+00  4.7171E-06                                                                                                                                                                                                                                                                                                                                                                                                                                                                                                                                                                                                                                
    1725.0000     125.0000   -5225.0000  192.929  0.19739  9.67618E-07  1.00000E-16  1.0000E+00  1.00000E-16  1.0000E+00  0.0000E+00 -3.5860E-07 -7.2695E-06 -3.1576E-06  0.0000E+00  4.7882E-06                                                                                                                                                                                                                                                                                                                                                                                                                                                                                                                                                                                                                                
    1975.0000     125.0000   -5225.0000  193.092  0.19739  9.74845E-07  1.00000E-16  1.0000E+00  1.00000E-16  1.0000E+00  0.0000E+00 -3.5829E-07 -7.3322E-06 -3.1809E-06  0.0000E+00  4.8514E-06                                                                                                                                                                                                                                                                                                                                                                                                                                                                                                                                                                                                                                
     125.0000     125.0000   -4975.0000  172.594  0.19750  5.67542E-07  1.00000E-16  1.0000E+00  1.00000E-16  1.0000E+00  0.0000E+00 -3.9796E-07 -2.5258E-06 -1.3914E-06  0.0000E+00  5.9207E-08                                                                                                                                                                                                                                                                                                                                                                                                                                                                                                                                                                                                                                
     375.0000     125.0000   -4975.0000  172.237  0.19750  5.61367E-07  1.00000E-16  1.0000E+00  1.00000E-16  1.0000E+00  0.0000E+00 -3.9873E-07 -2.4786E-06 -1.3738E-06  0.0000E+00  1.3237E-08                                                                                                                                                                                                                                                                                                                                                                                                                                                                                                                                                                                                                                
     625.0000     125.0000   -4975.0000  171.871  0.19750  5.58641E-07  1.00000E-16  1.0000E+00  1.00000E-16  1.0000E+00  0.0000E+00 -3.9921E-07 -2.4575E-06 -1.3679E-06  0.0000E+00  0.0000E+00                                                                                                                                                                                                                                                                                                                                                                                                                                                                                                                                                                                                                                
     875.0000     125.0000   -4975.0000  171.648  0.19749  5.57226E-07  1.00000E-16  1.0000E+00  1.00000E-16  1.0000E+00  0.0000E+00 -3.9943E-07 -2.4512E-06 -1.3672E-06  0.0000E+00  0.0000E+00                                                                                                                                                                                                                                                                                                                                                                                                                                                                                                                                                                                                                                
    1050.0000     125.0000   -4975.0000  171.622  0.19749  5.56745E-07  1.00000E-16  1.0000E+00  1.00000E-16  1.0000E+00  0.0000E+00 -3.9946E-07 -2.4504E-06 -1.3671E-06  0.0000E+00  0.0000E+00                                                                                                                                                                                                                                                                                                                                                                                                                                                                                                                                                                                                                                
    1225.0000     125.0000   -4975.0000  171.648  0.19749  5.57224E-07  1.00000E-16  1.0000E+00  1.00000E-16  1.0000E+00  0.0000E+00 -3.9943E-07 -2.4512E-06 -1.3672E-06  0.0000E+00  0.0000E+00                                                                                                                                                                                                                                                                                                                                                                                                                                                                                                                                                                                                                                
    1475.0000     125.0000   -4975.0000  171.871  0.19750  5.58641E-07  1.00000E-16  1.0000E+00  1.00000E-16  1.0000E+00  0.0000E+00 -3.9921E-07 -2.4575E-06 -1.3679E-06  0.0000E+00  0.0000E+00                                                                                                                                                                                                                                                                                                                                                                                                                                                                                                                                                                                                                                
    1725.0000     125.0000   -4975.0000  172.237  0.19750  5.61365E-07  1.00000E-16  1.0000E+00  1.00000E-16  1.0000E+00  0.0000E+00 -3.9873E-07 -2.4786E-06 -1.3738E-06  0.0000E+00  1.3236E-08                                                                                                                                                                                                                                                                                                                                                                                                                                                                                                                                                                                                                                
    1975.0000     125.0000   -4975.0000  172.594  0.19750  5.67543E-07  1.00000E-16  1.0000E+00  1.00000E-16  1.0000E+00  0.0000E+00 -3.9796E-07 -2.5258E-06 -1.3914E-06  0.0000E+00  5.9207E-08                                                                                                                                                                                                                                                                                                                                                                                                                                                                                                                                                                                                                                
     125.0000     125.0000   -4725.0000  145.136  0.19754  8.64452E-07  1.00000E-16  1.0000E+00  1.00000E-16  1.0000E+00  0.0000E+00 -4.3566E-07 -1.7871E-06 -1.2668E-06  0.0000E+00  0.0000E+00                                                                                                                                                                                                                                                                                                                                                                                                                                                                                                                                                                                                                                
     375.0000     125.0000   -4725.0000  144.295  0.19754  8.50413E-07  1.00000E-16  1.0000E+00  1.00000E-16  1.0000E+00  0.0000E+00 -4.3709E-07 -1.7689E-06 -1.2630E-06  0.0000E+00  0.0000E+00                                                                                                                                                                                                                                                                                                                                                                                                                                                                                                                                                                                                                                
     625.0000     125.0000   -4725.0000  143.646  0.19754  8.41983E-07  1.00000E-16  1.0000E+00  1.00000E-16  1.0000E+00  0.0000E+00 -4.3820E-07 -1.7550E-06 -1.2600E-06  0.0000E+00  0.0000E+00                                                                                                                                                                                                                                                                                                                                                                                                                                                                                                                                                                                                                                
     875.0000     125.0000   -4725.0000  143.280  0.19753  8.37499E-07  1.00000E-16  1.0000E+00  1.00000E-16  1.0000E+00  0.0000E+00 -4.3884E-07 -1.7472E-06 -1.2583E-06  0.0000E+00  0.0000E+00                                                                                                                                                                                                                                                                                                                                                                                                                                                                                                                                                                                                                                
    1050.0000     125.0000   -4725.0000  143.216  0.19753  8.36268E-07  1.00000E-16  1.0000E+00  1.00000E-16  1.0000E+00  0.0000E+00 -4.3895E-07 -1.7459E-06 -1.2581E-06  0.0000E+00  0.0000E+00                                                                                                                                                                                                                                                                                                                                                                                                                                                                                                                                                                                                                                
    1225.0000     125.0000   -4725.0000  143.280  0.19753  8.37498E-07  1.00000E-16  1.0000E+00  1.00000E-16  1.0000E+00  0.0000E+00 -4.3884E-07 -1.7472E-06 -1.2583E-06  0.0000E+00  0.0000E+00                                                                                                                                                                                                                                                                                                                                                                                                                                                                                                                                                                                                                                
    1475.0000     125.0000   -4725.0000  143.646  0.19754  8.41984E-07  1.00000E-16  1.0000E+00  1.00000E-16  1.0000E+00  0.0000E+00 -4.3820E-07 -1.7550E-06 -1.2600E-06  0.0000E+00  0.0000E+00                                                                                                                                                                                                                                                                                                                                                                                                                                                                                                                                                                                                                                
    1725.0000     125.0000   -4725.0000  144.295  0.19754  8.50415E-07  1.00000E-16  1.0000E+00  1.00000E-16  1.0000E+00  0.0000E+00 -4.3709E-07 -1.7689E-06 -1.2630E-06  0.0000E+00  0.0000E+00                                                                                                                                                                                                                                                                                                                                                                                                                                                                                                                                                                                                                                