Title="TOUGHREACT V3.30-OMP: Mineral Abundances(Total or Changes) and/or Exchanged Species: Change in volume fraction"                                                                                                                                                                                                                                                                                                                                                                                                                                                                                                                                                                                                                                                                                                          
Variables= "X(m)"   "Y(m)"   "Z(m)"       "T(C)"   "Porosity"  "Poros_Chg" "Permx(m^2)"     "Kx/Kx0" "Permz(m^2)"     "Kz/Kz0" "quartz(alpha"     "dolomite"    "kaolinite"      "calcite"       "barite"    "anorthite"                                                                                                                                                                                                                                                                                                                                                                                                                                                                                                                                                                                                        
Zone T= "1.00000000E+01 yr" I=      9J=     10K=     23F=Point 
     125.0000     125.0000   -5425.0000  202.209  0.19724 -2.75525E-06  1.00000E-16  1.0000E+00  1.00000E-16  1.0000E+00  0.0000E+00 -3.4178E-07 -1.1912E-05 -4.8796E-06  0.0000E+00  9.4794E-06                                                                                                                                                                                                                                                                                                                                                                                                                                                                                                                                                                                                                                
     375.0000     125.0000   -5425.0000  202.096  0.19724 -2.79247E-06  1.00000E-16  1.0000E+00  1.00000E-16  1.0000E+00  0.0000E+00 -3.4198E-07 -1.1840E-05 -4.8530E-06  0.0000E+00  9.4068E-06                                                                                                                                                                                                                                                                                                                                                                                                                                                                                                                                                                                                                                
     625.0000     125.0000   -5425.0000  201.973  0.19724 -2.84464E-06  1.00000E-16  1.0000E+00  1.00000E-16  1.0000E+00  0.0000E+00 -3.4221E-07 -1.1762E-05 -4.8242E-06  0.0000E+00  9.3280E-06                                                                                                                                                                                                                                                                                                                                                                                                                                                                                                                                                                                                                                
     875.0000     125.0000   -5425.0000  201.961  0.19724 -2.89434E-06  1.00000E-16  1.0000E+00  1.00000E-16  1.0000E+00  0.0000E+00 -3.4224E-07 -1.1755E-05 -4.8215E-06  0.0000E+00  9.3207E-06                                                                                                                                                                                                                                                                                                                                                                                                                                                                                                                                                                                                                                
    1050.0000     125.0000   -5425.0000  202.132  0.19724 -3.03412E-06  1.00000E-16  1.0000E+00  1.00000E-16  1.0000E+00  0.0000E+00 -3.4190E-07 -1.1862E-05 -4.8612E-06  0.0000E+00  9.4293E-06                                                                                                                                                                                                                                                                                                                                                                                                                                                                                                                                                                                                                                
    1225.0000     125.0000   -5425.0000  201.961  0.19724 -2.89434E-06  1.00000E-16  1.0000E+00  1.00000E-16  1.0000E+00  0.0000E+00 -3.4224E-07 -1.1755E-05 -4.8215E-06  0.0000E+00  9.3207E-06                                                                                                                                                                                                                                                                                                                                                                                                                                                                                                                                                                                                                                
    1475.0000     125.0000   -5425.0000  201.973  0.19724 -2.84463E-06  1.00000E-16  1.0000E+00  1.00000E-16  1.0000E+00  0.0000E+00 -3.4221E-07 -1.1762E-05 -4.8242E-06  0.0000E+00  9.3280E-06                                                                                                                                                                                                                                                                                                                                                                                                                                                                                                                                                                                                                                
    1725.0000     125.0000   -5425.0000  202.096  0.19724 -2.79245E-06  1.00000E-16  1.0000E+00  1.00000E-16  1.0000E+00  0.0000E+00 -3.4198E-07 -1.1840E-05 -4.8530E-06  0.0000E+00  9.4068E-06                                                                                                                                                                                                                                                                                                                                                                                                                                                                                                                                                                                                                                
    1975.0000     125.0000   -5425.0000  202.209  0.19724 -2.75521E-06  1.00000E-16  1.0000E+00  1.00000E-16  1.0000E+00  0.0000E+00 -3.4178E-07 -1.1912E-05 -4.8796E-06  0.0000E+00  9.4794E-06                                                                                                                                                                                                                                                                                                                                                                                                                                                                                                                                                                                                                                
     125.0000     125.0000   -5225.0000  193.007  0.19738 -2.15374E-06  1.00000E-16  1.0000E+00  1.00000E-16  1.0000E+00  0.0000E+00 -3.5846E-07 -7.2993E-06 -3.1689E-06  0.0000E+00  4.8183E-06                                                                                                                                                                                                                                                                                                                                                                                                                                                                                                                                                                                                                                
     375.0000     125.0000   -5225.0000  192.843  0.19738 -2.18711E-06  1.00000E-16  1.0000E+00  1.00000E-16  1.0000E+00  0.0000E+00 -3.5877E-07 -7.2369E-06 -3.1457E-06  0.0000E+00  4.7554E-06                                                                                                                                                                                                                                                                                                                                                                                                                                                                                                                                                                                                                                
     625.0000     125.0000   -5225.0000  192.658  0.19738 -2.23208E-06  1.00000E-16  1.0000E+00  1.00000E-16  1.0000E+00  0.0000E+00 -3.5911E-07 -7.1668E-06 -3.1197E-06  0.0000E+00  4.6847E-06                                                                                                                                                                                                                                                                                                                                                                                                                                                                                                                                                                                                                                
     875.0000     125.0000   -5225.0000  192.562  0.19738 -2.27130E-06  1.00000E-16  1.0000E+00  1.00000E-16  1.0000E+00  0.0000E+00 -3.5929E-07 -7.1306E-06 -3.1063E-06  0.0000E+00  4.6482E-06                                                                                                                                                                                                                                                                                                                                                                                                                                                                                                                                                                                                                                
    1050.0000     125.0000   -5225.0000  192.572  0.19738 -2.28327E-06  1.00000E-16  1.0000E+00  1.00000E-16  1.0000E+00  0.0000E+00 -3.5927E-07 -7.1345E-06 -3.1077E-06  0.0000E+00  4.6521E-06                                                                                                                                                                                                                                                                                                                                                                                                                                                                                                                                                                                                                                
    1225.0000     125.0000   -5225.0000  192.562  0.19738 -2.27129E-06  1.00000E-16  1.0000E+00  1.00000E-16  1.0000E+00  0.0000E+00 -3.5929E-07 -7.1306E-06 -3.1063E-06  0.0000E+00  4.6482E-06                                                                                                                                                                                                                                                                                                                                                                                                                                                                                                                                                                                                                                
    1475.0000     125.0000   -5225.0000  192.658  0.19738 -2.23207E-06  1.00000E-16  1.0000E+00  1.00000E-16  1.0000E+00  0.0000E+00 -3.5911E-07 -7.1668E-06 -3.1197E-06  0.0000E+00  4.6847E-06                                                                                                                                                                                                                                                                                                                                                                                                                                                                                                                                                                                                                                
    1725.0000     125.0000   -5225.0000  192.843  0.19738 -2.18710E-06  1.00000E-16  1.0000E+00  1.00000E-16  1.0000E+00  0.0000E+00 -3.5877E-07 -7.2369E-06 -3.1457E-06  0.0000E+00  4.7554E-06                                                                                                                                                                                                                                                                                                                                                                                                                                                                                                                                                                                                                                
    1975.0000     125.0000   -5225.0000  193.007  0.19738 -2.15371E-06  1.00000E-16  1.0000E+00  1.00000E-16  1.0000E+00  0.0000E+00 -3.5846E-07 -7.2993E-06 -3.1689E-06  0.0000E+00  4.8183E-06                                                                                                                                                                                                                                                                                                                                                                                                                                                                                                                                                                                                                                
     125.0000     125.0000   -4975.0000  172.526  0.19750 -1.33242E-06  1.00000E-16  1.0000E+00  1.00000E-16  1.0000E+00  0.0000E+00 -3.9806E-07 -2.5166E-06 -1.3879E-06  0.0000E+00  5.0285E-08                                                                                                                                                                                                                                                                                                                                                                                                                                                                                                                                                                                                                                
     375.0000     125.0000   -4975.0000  172.169  0.19750 -1.36049E-06  1.00000E-16  1.0000E+00  1.00000E-16  1.0000E+00  0.0000E+00 -3.9883E-07 -2.4696E-06 -1.3704E-06  0.0000E+00  4.4908E-09                                                                                                                                                                                                                                                                                                                                                                                                                                                                                                                                                                                                                                
     625.0000     125.0000   -4975.0000  171.803  0.19749 -1.38618E-06  1.00000E-16  1.0000E+00  1.00000E-16  1.0000E+00  0.0000E+00 -3.9923E-07 -2.4556E-06 -1.3676E-06  0.0000E+00  0.0000E+00                                                                                                                                                                                                                                                                                                                                                                                                                                                                                                                                                                                                                                
     875.0000     125.0000   -4975.0000  171.580  0.19749 -1.40594E-06  1.00000E-16  1.0000E+00  1.00000E-16  1.0000E+00  0.0000E+00 -3.9945E-07 -2.4492E-06 -1.3668E-06  0.0000E+00  0.0000E+00                                                                                                                                                                                                                                                                                                                                                                                                                                                                                                                                                                                                                                
    1050.0000     125.0000   -4975.0000  171.554  0.19749 -1.40934E-06  1.00000E-16  1.0000E+00  1.00000E-16  1.0000E+00  0.0000E+00 -3.9948E-07 -2.4485E-06 -1.3668E-06  0.0000E+00  0.0000E+00                                                                                                                                                                                                                                                                                                                                                                                                                                                                                                                                                                                                                                
    1225.0000     125.0000   -4975.0000  171.580  0.19749 -1.40594E-06  1.00000E-16  1.0000E+00  1.00000E-16  1.0000E+00  0.0000E+00 -3.9945E-07 -2.4492E-06 -1.3668E-06  0.0000E+00  0.0000E+00                                                                                                                                                                                                                                                                                                                                                                                                                                                                                                                                                                                                                                
    1475.0000     125.0000   -4975.0000  171.803  0.19749 -1.38618E-06  1.00000E-16  1.0000E+00  1.00000E-16  1.0000E+00  0.0000E+00 -3.9923E-07 -2.4556E-06 -1.3676E-06  0.0000E+00  0.0000E+00                                                                                                                                                                                                                                                                                                                                                                                                                                                                                                                                                                                                                                
    1725.0000     125.0000   -4975.0000  172.169  0.19750 -1.36049E-06  1.00000E-16  1.0000E+00  1.00000E-16  1.0000E+00  0.0000E+00 -3.9883E-07 -2.4696E-06 -1.3704E-06  0.0000E+00  4.4907E-09                                                                                                                                                                                                                                                                                                                                                                                                                                                                                                                                                                                                                                
    1975.0000     125.0000   -4975.0000  172.526  0.19750 -1.33241E-06  1.00000E-16  1.0000E+00  1.00000E-16  1.0000E+00  0.0000E+00 -3.9806E-07 -2.5166E-06 -1.3879E-06  0.0000E+00  5.0285E-08                                                                                                                                                                                                                                                                                                                                                                                                                                                                                                                                                                                                                                
     125.0000     125.0000   -4725.0000  145.099  0.19754  1.23416E-06  1.00000E-16  1.0000E+00  1.00000E-16  1.0000E+00  0.0000E+00 -4.3584E-07 -1.7868E-06 -1.2671E-06  0.0000E+00  0.0000E+00                                                                                                                                                                                                                                                                                                                                                                                                                                                                                                                                                                                                                                
     375.0000     125.0000   -4725.0000  144.260  0.19754  1.20648E-06  1.00000E-16  1.0000E+00  1.00000E-16  1.0000E+00  0.0000E+00 -4.3722E-07 -1.7683E-06 -1.2631E-06  0.0000E+00  0.0000E+00                                                                                                                                                                                                                                                                                                                                                                                                                                                                                                                                                                                                                                
     625.0000     125.0000   -4725.0000  143.610  0.19754  1.18472E-06  1.00000E-16  1.0000E+00  1.00000E-16  1.0000E+00  0.0000E+00 -4.3830E-07 -1.7540E-06 -1.2600E-06  0.0000E+00  0.0000E+00                                                                                                                                                                                                                                                                                                                                                                                                                                                                                                                                                                                                                                
     875.0000     125.0000   -4725.0000  143.245  0.19753  1.17143E-06  1.00000E-16  1.0000E+00  1.00000E-16  1.0000E+00  0.0000E+00 -4.3890E-07 -1.7460E-06 -1.2583E-06  0.0000E+00  0.0000E+00                                                                                                                                                                                                                                                                                                                                                                                                                                                                                                                                                                                                                                
    1050.0000     125.0000   -4725.0000  143.181  0.19753  1.16890E-06  1.00000E-16  1.0000E+00  1.00000E-16  1.0000E+00  0.0000E+00 -4.3889E-07 -1.7446E-06 -1.2581E-06  0.0000E+00  0.0000E+00                                                                                                                                                                                                                                                                                                                                                                                                                                                                                                                                                                                                                                
    1225.0000     125.0000   -4725.0000  143.245  0.19753  1.17144E-06  1.00000E-16  1.0000E+00  1.00000E-16  1.0000E+00  0.0000E+00 -4.3890E-07 -1.7460E-06 -1.2583E-06  0.0000E+00  0.0000E+00                                                                                                                                                                                                                                                                                                                                                                                                                                                                                                                                                                                                                                
    1475.0000     125.0000   -4725.0000  143.610  0.19754  1.18472E-06  1.00000E-16  1.0000E+00  1.00000E-16  1.0000E+00  0.0000E+00 -4.3830E-07 -1.7540E-06 -1.2600E-06  0.0000E+00  0.0000E+00                                                                                                                                                                                                                                                                                                                                                                                                                                                                                                                                                                                                                                
    1725.0000     125.0000   -4725.0000  144.260  0.19754  1.20648E-06  1.00000E-16  1.0000E+00  1.00000E-16  1.0000E+00  0.0000E+00 -4.3722E-07 -1.7683E-06 -1.2631E-06  0.0000E+00  0.0000E+00                                                                                                                                                                                                                                                                                                                                                                                                                                                                                                                                                                                                                                