Title="TOUGHREACT V3.30-OMP: Mineral Abundances(Total or Changes) and/or Exchanged Species: Change in volume fraction"                                                                                                                                                                                                                                                                                                                                                                                                                                                                                                                                                                                                                                                                                                          
Variables= "X(m)"   "Y(m)"   "Z(m)"       "T(C)"   "Porosity"  "Poros_Chg" "Permx(m^2)"     "Kx/Kx0" "Permz(m^2)"     "Kz/Kz0" "quartz(alpha"     "dolomite"    "kaolinite"      "calcite"       "barite"    "anorthite"                                                                                                                                                                                                                                                                                                                                                                                                                                                                                                                                                                                                        
Zone T= "3.16887907E+01 yr" I=      9J=     10K=     23F=Point 
     125.0000     125.0000   -5425.0000  201.809  0.19723 -6.54062E-06  1.00000E-16  1.0000E+00  1.00000E-16  1.0000E+00  0.0000E+00 -3.4217E-07 -1.1647E-05 -4.7814E-06  0.0000E+00  9.2146E-06                                                                                                                                                                                                                                                                                                                                                                                                                                                                                                                                                                                                                                
     375.0000     125.0000   -5425.0000  201.696  0.19723 -6.58211E-06  1.00000E-16  1.0000E+00  1.00000E-16  1.0000E+00  0.0000E+00 -3.4239E-07 -1.1577E-05 -4.7555E-06  0.0000E+00  9.1436E-06                                                                                                                                                                                                                                                                                                                                                                                                                                                                                                                                                                                                                                
     625.0000     125.0000   -5425.0000  201.572  0.19723 -6.64055E-06  1.00000E-16  1.0000E+00  1.00000E-16  1.0000E+00  0.0000E+00 -3.4262E-07 -1.1501E-05 -4.7273E-06  0.0000E+00  9.0665E-06                                                                                                                                                                                                                                                                                                                                                                                                                                                                                                                                                                                                                                
     875.0000     125.0000   -5425.0000  201.559  0.19723 -6.70022E-06  1.00000E-16  1.0000E+00  1.00000E-16  1.0000E+00  0.0000E+00 -3.4264E-07 -1.1493E-05 -4.7243E-06  0.0000E+00  9.0585E-06                                                                                                                                                                                                                                                                                                                                                                                                                                                                                                                                                                                                                                
    1050.0000     125.0000   -5425.0000  201.695  0.19723 -7.03450E-06  1.00000E-16  1.0000E+00  1.00000E-16  1.0000E+00  0.0000E+00 -3.4234E-07 -1.1576E-05 -4.7548E-06  0.0000E+00  9.1422E-06                                                                                                                                                                                                                                                                                                                                                                                                                                                                                                                                                                                                                                
    1225.0000     125.0000   -5425.0000  201.559  0.19723 -6.70021E-06  1.00000E-16  1.0000E+00  1.00000E-16  1.0000E+00  0.0000E+00 -3.4264E-07 -1.1493E-05 -4.7243E-06  0.0000E+00  9.0585E-06                                                                                                                                                                                                                                                                                                                                                                                                                                                                                                                                                                                                                                
    1475.0000     125.0000   -5425.0000  201.572  0.19723 -6.64053E-06  1.00000E-16  1.0000E+00  1.00000E-16  1.0000E+00  0.0000E+00 -3.4262E-07 -1.1501E-05 -4.7273E-06  0.0000E+00  9.0665E-06                                                                                                                                                                                                                                                                                                                                                                                                                                                                                                                                                                                                                                
    1725.0000     125.0000   -5425.0000  201.696  0.19723 -6.58208E-06  1.00000E-16  1.0000E+00  1.00000E-16  1.0000E+00  0.0000E+00 -3.4239E-07 -1.1577E-05 -4.7555E-06  0.0000E+00  9.1436E-06                                                                                                                                                                                                                                                                                                                                                                                                                                                                                                                                                                                                                                
    1975.0000     125.0000   -5425.0000  201.809  0.19723 -6.54059E-06  1.00000E-16  1.0000E+00  1.00000E-16  1.0000E+00  0.0000E+00 -3.4217E-07 -1.1647E-05 -4.7814E-06  0.0000E+00  9.2146E-06                                                                                                                                                                                                                                                                                                                                                                                                                                                                                                                                                                                                                                
     125.0000     125.0000   -5225.0000  192.812  0.19738 -4.91778E-06  1.00000E-16  1.0000E+00  1.00000E-16  1.0000E+00  0.0000E+00 -3.5885E-07 -7.2250E-06 -3.1417E-06  0.0000E+00  4.7435E-06                                                                                                                                                                                                                                                                                                                                                                                                                                                                                                                                                                                                                                
     375.0000     125.0000   -5225.0000  192.649  0.19738 -4.95541E-06  1.00000E-16  1.0000E+00  1.00000E-16  1.0000E+00  0.0000E+00 -3.5916E-07 -7.1635E-06 -3.1188E-06  0.0000E+00  4.6814E-06                                                                                                                                                                                                                                                                                                                                                                                                                                                                                                                                                                                                                                
     625.0000     125.0000   -5225.0000  192.463  0.19738 -5.00685E-06  1.00000E-16  1.0000E+00  1.00000E-16  1.0000E+00  0.0000E+00 -3.5951E-07 -7.0941E-06 -3.0931E-06  0.0000E+00  4.6115E-06                                                                                                                                                                                                                                                                                                                                                                                                                                                                                                                                                                                                                                
     875.0000     125.0000   -5225.0000  192.367  0.19738 -5.05189E-06  1.00000E-16  1.0000E+00  1.00000E-16  1.0000E+00  0.0000E+00 -3.5969E-07 -7.0584E-06 -3.0798E-06  0.0000E+00  4.5754E-06                                                                                                                                                                                                                                                                                                                                                                                                                                                                                                                                                                                                                                
    1050.0000     125.0000   -5225.0000  192.376  0.19738 -5.07142E-06  1.00000E-16  1.0000E+00  1.00000E-16  1.0000E+00  0.0000E+00 -3.5967E-07 -7.0619E-06 -3.0811E-06  0.0000E+00  4.5789E-06                                                                                                                                                                                                                                                                                                                                                                                                                                                                                                                                                                                                                                
    1225.0000     125.0000   -5225.0000  192.367  0.19738 -5.05188E-06  1.00000E-16  1.0000E+00  1.00000E-16  1.0000E+00  0.0000E+00 -3.5969E-07 -7.0584E-06 -3.0798E-06  0.0000E+00  4.5754E-06                                                                                                                                                                                                                                                                                                                                                                                                                                                                                                                                                                                                                                
    1475.0000     125.0000   -5225.0000  192.463  0.19738 -5.00683E-06  1.00000E-16  1.0000E+00  1.00000E-16  1.0000E+00  0.0000E+00 -3.5951E-07 -7.0941E-06 -3.0931E-06  0.0000E+00  4.6115E-06                                                                                                                                                                                                                                                                                                                                                                                                                                                                                                                                                                                                                                
    1725.0000     125.0000   -5225.0000  192.649  0.19738 -4.95540E-06  1.00000E-16  1.0000E+00  1.00000E-16  1.0000E+00  0.0000E+00 -3.5916E-07 -7.1635E-06 -3.1188E-06  0.0000E+00  4.6814E-06                                                                                                                                                                                                                                                                                                                                                                                                                                                                                                                                                                                                                                
    1975.0000     125.0000   -5225.0000  192.812  0.19738 -4.91776E-06  1.00000E-16  1.0000E+00  1.00000E-16  1.0000E+00  0.0000E+00 -3.5885E-07 -7.2250E-06 -3.1417E-06  0.0000E+00  4.7435E-06                                                                                                                                                                                                                                                                                                                                                                                                                                                                                                                                                                                                                                
     125.0000     125.0000   -4975.0000  172.372  0.19750 -3.48672E-06  1.00000E-16  1.0000E+00  1.00000E-16  1.0000E+00  0.0000E+00 -3.9829E-07 -2.4963E-06 -1.3801E-06  0.0000E+00  3.0434E-08                                                                                                                                                                                                                                                                                                                                                                                                                                                                                                                                                                                                                                
     375.0000     125.0000   -4975.0000  172.017  0.19749 -3.51459E-06  1.00000E-16  1.0000E+00  1.00000E-16  1.0000E+00  0.0000E+00 -3.9892E-07 -2.4617E-06 -1.3680E-06  0.0000E+00  0.0000E+00                                                                                                                                                                                                                                                                                                                                                                                                                                                                                                                                                                                                                                
     625.0000     125.0000   -4975.0000  171.651  0.19749 -3.54316E-06  1.00000E-16  1.0000E+00  1.00000E-16  1.0000E+00  0.0000E+00 -3.9928E-07 -2.4513E-06 -1.3668E-06  0.0000E+00  0.0000E+00                                                                                                                                                                                                                                                                                                                                                                                                                                                                                                                                                                                                                                
     875.0000     125.0000   -4975.0000  171.428  0.19749 -3.56635E-06  1.00000E-16  1.0000E+00  1.00000E-16  1.0000E+00  0.0000E+00 -3.9950E-07 -2.4450E-06 -1.3661E-06  0.0000E+00  0.0000E+00                                                                                                                                                                                                                                                                                                                                                                                                                                                                                                                                                                                                                                
    1050.0000     125.0000   -4975.0000  171.402  0.19749 -3.57051E-06  1.00000E-16  1.0000E+00  1.00000E-16  1.0000E+00  0.0000E+00 -3.9953E-07 -2.4443E-06 -1.3660E-06  0.0000E+00  0.0000E+00                                                                                                                                                                                                                                                                                                                                                                                                                                                                                                                                                                                                                                
    1225.0000     125.0000   -4975.0000  171.428  0.19749 -3.56635E-06  1.00000E-16  1.0000E+00  1.00000E-16  1.0000E+00  0.0000E+00 -3.9950E-07 -2.4450E-06 -1.3661E-06  0.0000E+00  0.0000E+00                                                                                                                                                                                                                                                                                                                                                                                                                                                                                                                                                                                                                                
    1475.0000     125.0000   -4975.0000  171.651  0.19749 -3.54317E-06  1.00000E-16  1.0000E+00  1.00000E-16  1.0000E+00  0.0000E+00 -3.9928E-07 -2.4513E-06 -1.3668E-06  0.0000E+00  0.0000E+00                                                                                                                                                                                                                                                                                                                                                                                                                                                                                                                                                                                                                                
    1725.0000     125.0000   -4975.0000  172.017  0.19749 -3.51459E-06  1.00000E-16  1.0000E+00  1.00000E-16  1.0000E+00  0.0000E+00 -3.9892E-07 -2.4617E-06 -1.3680E-06  0.0000E+00  0.0000E+00                                                                                                                                                                                                                                                                                                                                                                                                                                                                                                                                                                                                                                
    1975.0000     125.0000   -4975.0000  172.372  0.19750 -3.48671E-06  1.00000E-16  1.0000E+00  1.00000E-16  1.0000E+00  0.0000E+00 -3.9829E-07 -2.4963E-06 -1.3801E-06  0.0000E+00  3.0434E-08                                                                                                                                                                                                                                                                                                                                                                                                                                                                                                                                                                                                                                
     125.0000     125.0000   -4725.0000  145.017  0.19754  3.50181E-07  1.00000E-16  1.0000E+00  1.00000E-16  1.0000E+00  0.0000E+00 -4.3606E-07 -1.7844E-06 -1.2671E-06  0.0000E+00  0.0000E+00                                                                                                                                                                                                                                                                                                                                                                                                                                                                                                                                                                                                                                
     375.0000     125.0000   -4725.0000  144.180  0.19754  3.27752E-07  1.00000E-16  1.0000E+00  1.00000E-16  1.0000E+00  0.0000E+00 -4.3738E-07 -1.7653E-06 -1.2630E-06  0.0000E+00  0.0000E+00                                                                                                                                                                                                                                                                                                                                                                                                                                                                                                                                                                                                                                
     625.0000     125.0000   -4725.0000  143.532  0.19754  3.09473E-07  1.00000E-16  1.0000E+00  1.00000E-16  1.0000E+00  0.0000E+00 -4.3843E-07 -1.7509E-06 -1.2598E-06  0.0000E+00  0.0000E+00                                                                                                                                                                                                                                                                                                                                                                                                                                                                                                                                                                                                                                
     875.0000     125.0000   -4725.0000  143.167  0.19753  2.97397E-07  1.00000E-16  1.0000E+00  1.00000E-16  1.0000E+00  0.0000E+00 -4.3899E-07 -1.7429E-06 -1.2581E-06  0.0000E+00  0.0000E+00                                                                                                                                                                                                                                                                                                                                                                                                                                                                                                                                                                                                                                
    1050.0000     125.0000   -4725.0000  143.104  0.19753  2.94970E-07  1.00000E-16  1.0000E+00  1.00000E-16  1.0000E+00  0.0000E+00 -4.3880E-07 -1.7414E-06 -1.2582E-06  0.0000E+00  0.0000E+00                                                                                                                                                                                                                                                                                                                                                                                                                                                                                                                                                                                                                                
    1225.0000     125.0000   -4725.0000  143.167  0.19753  2.97399E-07  1.00000E-16  1.0000E+00  1.00000E-16  1.0000E+00  0.0000E+00 -4.3899E-07 -1.7429E-06 -1.2581E-06  0.0000E+00  0.0000E+00                                                                                                                                                                                                                                                                                                                                                                                                                                                                                                                                                                                                                                
    1475.0000     125.0000   -4725.0000  143.532  0.19754  3.09474E-07  1.00000E-16  1.0000E+00  1.00000E-16  1.0000E+00  0.0000E+00 -4.3843E-07 -1.7509E-06 -1.2598E-06  0.0000E+00  0.0000E+00                                                                                                                                                                                                                                                                                                                                                                                                                                                                                                                                                                                                                                
    1725.0000     125.0000   -4725.0000  144.180  0.19754  3.27754E-07  1.00000E-16  1.0000E+00  1.00000E-16  1.0000E+00  0.0000E+00 -4.3738E-07 -1.7653E-06 -1.2630E-06  0.0000E+00  0.0000E+00                                                                                                                                                                                                                                                                                                                                                                                                                                                                                                                                                                                                                                