Title="TOUGHREACT V3.30-OMP: Mineral Abundances(Total or Changes) and/or Exchanged Species: Change in volume fraction"                                                                                                                                                                                                                                                                                                                                                                                                                                                                                                                                                                                                                                                                                                          
Variables= "X(m)"   "Y(m)"   "Z(m)"       "T(C)"   "Porosity"  "Poros_Chg" "Permx(m^2)"     "Kx/Kx0" "Permz(m^2)"     "Kz/Kz0" "quartz(alpha"     "dolomite"    "kaolinite"      "calcite"       "barite"    "anorthite"                                                                                                                                                                                                                                                                                                                                                                                                                                                                                                                                                                                                        
Zone T= "0.00000000E+00 yr" I=      9J=     10K=     23F=Point 
     125.0000     125.0000   -5425.0000  202.396  0.19724 -3.19189E-15  1.00000E-16  1.0000E+00  1.00000E-16  1.0000E+00  0.0000E+00  0.0000E+00  0.0000E+00  0.0000E+00  0.0000E+00  0.0000E+00                                                                                                                                                                                                                                                                                                                                                                                                                                                                                                                                                                                                                                
     375.0000     125.0000   -5425.0000  202.283  0.19724 -3.19189E-15  1.00000E-16  1.0000E+00  1.00000E-16  1.0000E+00  0.0000E+00  0.0000E+00  0.0000E+00  0.0000E+00  0.0000E+00  0.0000E+00                                                                                                                                                                                                                                                                                                                                                                                                                                                                                                                                                                                                                                
     625.0000     125.0000   -5425.0000  202.160  0.19724 -3.19189E-15  1.00000E-16  1.0000E+00  1.00000E-16  1.0000E+00  0.0000E+00  0.0000E+00  0.0000E+00  0.0000E+00  0.0000E+00  0.0000E+00                                                                                                                                                                                                                                                                                                                                                                                                                                                                                                                                                                                                                                
     875.0000     125.0000   -5425.0000  202.148  0.19724 -3.19189E-15  1.00000E-16  1.0000E+00  1.00000E-16  1.0000E+00  0.0000E+00  0.0000E+00  0.0000E+00  0.0000E+00  0.0000E+00  0.0000E+00                                                                                                                                                                                                                                                                                                                                                                                                                                                                                                                                                                                                                                
    1050.0000     125.0000   -5425.0000  202.337  0.19724 -3.74700E-15  1.00000E-16  1.0000E+00  1.00000E-16  1.0000E+00  0.0000E+00  0.0000E+00  0.0000E+00  0.0000E+00  0.0000E+00  0.0000E+00                                                                                                                                                                                                                                                                                                                                                                                                                                                                                                                                                                                                                                
    1225.0000     125.0000   -5425.0000  202.148  0.19724 -3.19189E-15  1.00000E-16  1.0000E+00  1.00000E-16  1.0000E+00  0.0000E+00  0.0000E+00  0.0000E+00  0.0000E+00  0.0000E+00  0.0000E+00                                                                                                                                                                                                                                                                                                                                                                                                                                                                                                                                                                                                                                
    1475.0000     125.0000   -5425.0000  202.160  0.19724 -3.19189E-15  1.00000E-16  1.0000E+00  1.00000E-16  1.0000E+00  0.0000E+00  0.0000E+00  0.0000E+00  0.0000E+00  0.0000E+00  0.0000E+00                                                                                                                                                                                                                                                                                                                                                                                                                                                                                                                                                                                                                                
    1725.0000     125.0000   -5425.0000  202.283  0.19724 -3.19189E-15  1.00000E-16  1.0000E+00  1.00000E-16  1.0000E+00  0.0000E+00  0.0000E+00  0.0000E+00  0.0000E+00  0.0000E+00  0.0000E+00                                                                                                                                                                                                                                                                                                                                                                                                                                                                                                                                                                                                                                
    1975.0000     125.0000   -5425.0000  202.396  0.19724 -3.19189E-15  1.00000E-16  1.0000E+00  1.00000E-16  1.0000E+00  0.0000E+00  0.0000E+00  0.0000E+00  0.0000E+00  0.0000E+00  0.0000E+00                                                                                                                                                                                                                                                                                                                                                                                                                                                                                                                                                                                                                                
     125.0000     125.0000   -5225.0000  193.094  0.19739 -3.60822E-16  1.00000E-16  1.0000E+00  1.00000E-16  1.0000E+00  0.0000E+00  0.0000E+00  0.0000E+00  0.0000E+00  0.0000E+00  0.0000E+00                                                                                                                                                                                                                                                                                                                                                                                                                                                                                                                                                                                                                                
     375.0000     125.0000   -5225.0000  192.931  0.19738 -3.60822E-16  1.00000E-16  1.0000E+00  1.00000E-16  1.0000E+00  0.0000E+00  0.0000E+00  0.0000E+00  0.0000E+00  0.0000E+00  0.0000E+00                                                                                                                                                                                                                                                                                                                                                                                                                                                                                                                                                                                                                                
     625.0000     125.0000   -5225.0000  192.746  0.19738 -3.60822E-16  1.00000E-16  1.0000E+00  1.00000E-16  1.0000E+00  0.0000E+00  0.0000E+00  0.0000E+00  0.0000E+00  0.0000E+00  0.0000E+00                                                                                                                                                                                                                                                                                                                                                                                                                                                                                                                                                                                                                                
     875.0000     125.0000   -5225.0000  192.649  0.19738 -3.60822E-16  1.00000E-16  1.0000E+00  1.00000E-16  1.0000E+00  0.0000E+00  0.0000E+00  0.0000E+00  0.0000E+00  0.0000E+00  0.0000E+00                                                                                                                                                                                                                                                                                                                                                                                                                                                                                                                                                                                                                                
    1050.0000     125.0000   -5225.0000  192.660  0.19738 -3.60822E-16  1.00000E-16  1.0000E+00  1.00000E-16  1.0000E+00  0.0000E+00  0.0000E+00  0.0000E+00  0.0000E+00  0.0000E+00  0.0000E+00                                                                                                                                                                                                                                                                                                                                                                                                                                                                                                                                                                                                                                
    1225.0000     125.0000   -5225.0000  192.649  0.19738 -3.60822E-16  1.00000E-16  1.0000E+00  1.00000E-16  1.0000E+00  0.0000E+00  0.0000E+00  0.0000E+00  0.0000E+00  0.0000E+00  0.0000E+00                                                                                                                                                                                                                                                                                                                                                                                                                                                                                                                                                                                                                                
    1475.0000     125.0000   -5225.0000  192.746  0.19738 -3.60822E-16  1.00000E-16  1.0000E+00  1.00000E-16  1.0000E+00  0.0000E+00  0.0000E+00  0.0000E+00  0.0000E+00  0.0000E+00  0.0000E+00                                                                                                                                                                                                                                                                                                                                                                                                                                                                                                                                                                                                                                
    1725.0000     125.0000   -5225.0000  192.931  0.19738 -3.60822E-16  1.00000E-16  1.0000E+00  1.00000E-16  1.0000E+00  0.0000E+00  0.0000E+00  0.0000E+00  0.0000E+00  0.0000E+00  0.0000E+00                                                                                                                                                                                                                                                                                                                                                                                                                                                                                                                                                                                                                                
    1975.0000     125.0000   -5225.0000  193.094  0.19739 -3.60822E-16  1.00000E-16  1.0000E+00  1.00000E-16  1.0000E+00  0.0000E+00  0.0000E+00  0.0000E+00  0.0000E+00  0.0000E+00  0.0000E+00                                                                                                                                                                                                                                                                                                                                                                                                                                                                                                                                                                                                                                
     125.0000     125.0000   -4975.0000  172.596  0.19750 -3.60822E-16  1.00000E-16  1.0000E+00  1.00000E-16  1.0000E+00  0.0000E+00  0.0000E+00  0.0000E+00  0.0000E+00  0.0000E+00  0.0000E+00                                                                                                                                                                                                                                                                                                                                                                                                                                                                                                                                                                                                                                
     375.0000     125.0000   -4975.0000  172.239  0.19750 -3.60822E-16  1.00000E-16  1.0000E+00  1.00000E-16  1.0000E+00  0.0000E+00  0.0000E+00  0.0000E+00  0.0000E+00  0.0000E+00  0.0000E+00                                                                                                                                                                                                                                                                                                                                                                                                                                                                                                                                                                                                                                
     625.0000     125.0000   -4975.0000  171.873  0.19750 -3.60822E-16  1.00000E-16  1.0000E+00  1.00000E-16  1.0000E+00  0.0000E+00  0.0000E+00  0.0000E+00  0.0000E+00  0.0000E+00  0.0000E+00                                                                                                                                                                                                                                                                                                                                                                                                                                                                                                                                                                                                                                
     875.0000     125.0000   -4975.0000  171.650  0.19749 -3.60822E-16  1.00000E-16  1.0000E+00  1.00000E-16  1.0000E+00  0.0000E+00  0.0000E+00  0.0000E+00  0.0000E+00  0.0000E+00  0.0000E+00                                                                                                                                                                                                                                                                                                                                                                                                                                                                                                                                                                                                                                
    1050.0000     125.0000   -4975.0000  171.624  0.19749 -3.60822E-16  1.00000E-16  1.0000E+00  1.00000E-16  1.0000E+00  0.0000E+00  0.0000E+00  0.0000E+00  0.0000E+00  0.0000E+00  0.0000E+00                                                                                                                                                                                                                                                                                                                                                                                                                                                                                                                                                                                                                                
    1225.0000     125.0000   -4975.0000  171.650  0.19749 -3.60822E-16  1.00000E-16  1.0000E+00  1.00000E-16  1.0000E+00  0.0000E+00  0.0000E+00  0.0000E+00  0.0000E+00  0.0000E+00  0.0000E+00                                                                                                                                                                                                                                                                                                                                                                                                                                                                                                                                                                                                                                
    1475.0000     125.0000   -4975.0000  171.873  0.19750 -3.60822E-16  1.00000E-16  1.0000E+00  1.00000E-16  1.0000E+00  0.0000E+00  0.0000E+00  0.0000E+00  0.0000E+00  0.0000E+00  0.0000E+00                                                                                                                                                                                                                                                                                                                                                                                                                                                                                                                                                                                                                                
    1725.0000     125.0000   -4975.0000  172.239  0.19750 -3.60822E-16  1.00000E-16  1.0000E+00  1.00000E-16  1.0000E+00  0.0000E+00  0.0000E+00  0.0000E+00  0.0000E+00  0.0000E+00  0.0000E+00                                                                                                                                                                                                                                                                                                                                                                                                                                                                                                                                                                                                                                
    1975.0000     125.0000   -4975.0000  172.596  0.19750 -3.60822E-16  1.00000E-16  1.0000E+00  1.00000E-16  1.0000E+00  0.0000E+00  0.0000E+00  0.0000E+00  0.0000E+00  0.0000E+00  0.0000E+00                                                                                                                                                                                                                                                                                                                                                                                                                                                                                                                                                                                                                                
     125.0000     125.0000   -4725.0000  145.137  0.19754 -3.60822E-16  1.00000E-16  1.0000E+00  1.00000E-16  1.0000E+00  0.0000E+00  0.0000E+00  0.0000E+00  0.0000E+00  0.0000E+00  0.0000E+00                                                                                                                                                                                                                                                                                                                                                                                                                                                                                                                                                                                                                                
     375.0000     125.0000   -4725.0000  144.296  0.19754 -3.33067E-16  1.00000E-16  1.0000E+00  1.00000E-16  1.0000E+00  0.0000E+00  0.0000E+00  0.0000E+00  0.0000E+00  0.0000E+00  0.0000E+00                                                                                                                                                                                                                                                                                                                                                                                                                                                                                                                                                                                                                                
     625.0000     125.0000   -4725.0000  143.646  0.19754 -3.60822E-16  1.00000E-16  1.0000E+00  1.00000E-16  1.0000E+00  0.0000E+00  0.0000E+00  0.0000E+00  0.0000E+00  0.0000E+00  0.0000E+00                                                                                                                                                                                                                                                                                                                                                                                                                                                                                                                                                                                                                                
     875.0000     125.0000   -4725.0000  143.281  0.19753 -3.33067E-16  1.00000E-16  1.0000E+00  1.00000E-16  1.0000E+00  0.0000E+00  0.0000E+00  0.0000E+00  0.0000E+00  0.0000E+00  0.0000E+00                                                                                                                                                                                                                                                                                                                                                                                                                                                                                                                                                                                                                                
    1050.0000     125.0000   -4725.0000  143.217  0.19753 -3.33067E-16  1.00000E-16  1.0000E+00  1.00000E-16  1.0000E+00  0.0000E+00  0.0000E+00  0.0000E+00  0.0000E+00  0.0000E+00  0.0000E+00                                                                                                                                                                                                                                                                                                                                                                                                                                                                                                                                                                                                                                
    1225.0000     125.0000   -4725.0000  143.281  0.19753 -3.33067E-16  1.00000E-16  1.0000E+00  1.00000E-16  1.0000E+00  0.0000E+00  0.0000E+00  0.0000E+00  0.0000E+00  0.0000E+00  0.0000E+00                                                                                                                                                                                                                                                                                                                                                                                                                                                                                                                                                                                                                                
    1475.0000     125.0000   -4725.0000  143.646  0.19754 -3.60822E-16  1.00000E-16  1.0000E+00  1.00000E-16  1.0000E+00  0.0000E+00  0.0000E+00  0.0000E+00  0.0000E+00  0.0000E+00  0.0000E+00                                                                                                                                                                                                                                                                                                                                                                                                                                                                                                                                                                                                                                
    1725.0000     125.0000   -4725.0000  144.296  0.19754 -3.33067E-16  1.00000E-16  1.0000E+00  1.00000E-16  1.0000E+00  0.0000E+00  0.0000E+00  0.0000E+00  0.0000E+00  0.0000E+00  0.0000E+00                                                                                                                                                                                                                                                                                                                                                                                                                                                                                                                                                                                                                                