Title="TOUGHREACT V3.30-OMP: Mineral Abundances(Total or Changes) and/or Exchanged Species: Change in volume fraction"                                                                                                                                                                                                                                                                                                                                                                                                                                                                                                                                                                                                                                                                                                          
Variables= "X(m)"   "Y(m)"   "Z(m)"       "T(C)"   "Porosity"  "Poros_Chg" "Permx(m^2)"     "Kx/Kx0" "Permz(m^2)"     "Kz/Kz0" "quartz(alpha"     "dolomite"    "kaolinite"      "calcite"       "barite"    "anorthite"                                                                                                                                                                                                                                                                                                                                                                                                                                                                                                                                                                                                        
Zone T= "3.16887907E+03 yr" I=      9J=     10K=     23F=Point 
     125.0000     125.0000   -5425.0000  168.512  0.19716 -8.11285E-05  1.00000E-16  1.0000E+00  1.00000E-16  1.0000E+00  0.0000E+00 -3.9184E-07 -2.2465E-06 -1.3398E-06  0.0000E+00  0.0000E+00                                                                                                                                                                                                                                                                                                                                                                                                                                                                                                                                                                                                                                
     375.0000     125.0000   -5425.0000  168.395  0.19716 -8.12029E-05  1.00000E-16  1.0000E+00  1.00000E-16  1.0000E+00  0.0000E+00 -3.9199E-07 -2.2448E-06 -1.3395E-06  0.0000E+00  0.0000E+00                                                                                                                                                                                                                                                                                                                                                                                                                                                                                                                                                                                                                                
     625.0000     125.0000   -5425.0000  168.240  0.19716 -8.14436E-05  1.00000E-16  1.0000E+00  1.00000E-16  1.0000E+00  0.0000E+00 -3.9215E-07 -2.2416E-06 -1.3388E-06  0.0000E+00  0.0000E+00                                                                                                                                                                                                                                                                                                                                                                                                                                                                                                                                                                                                                                
     875.0000     125.0000   -5425.0000  168.127  0.19716 -8.20444E-05  1.00000E-16  1.0000E+00  1.00000E-16  1.0000E+00  0.0000E+00 -3.9215E-07 -2.2382E-06 -1.3380E-06  0.0000E+00  0.0000E+00                                                                                                                                                                                                                                                                                                                                                                                                                                                                                                                                                                                                                                
    1050.0000     125.0000   -5425.0000  168.113  0.19716 -8.32250E-05  1.00000E-16  1.0000E+00  1.00000E-16  1.0000E+00  0.0000E+00 -3.9190E-07 -2.2351E-06 -1.3370E-06  0.0000E+00  0.0000E+00                                                                                                                                                                                                                                                                                                                                                                                                                                                                                                                                                                                                                                
    1225.0000     125.0000   -5425.0000  168.127  0.19716 -8.20444E-05  1.00000E-16  1.0000E+00  1.00000E-16  1.0000E+00  0.0000E+00 -3.9215E-07 -2.2382E-06 -1.3380E-06  0.0000E+00  0.0000E+00                                                                                                                                                                                                                                                                                                                                                                                                                                                                                                                                                                                                                                
    1475.0000     125.0000   -5425.0000  168.240  0.19716 -8.14435E-05  1.00000E-16  1.0000E+00  1.00000E-16  1.0000E+00  0.0000E+00 -3.9215E-07 -2.2416E-06 -1.3388E-06  0.0000E+00  0.0000E+00                                                                                                                                                                                                                                                                                                                                                                                                                                                                                                                                                                                                                                
    1725.0000     125.0000   -5425.0000  168.395  0.19716 -8.12028E-05  1.00000E-16  1.0000E+00  1.00000E-16  1.0000E+00  0.0000E+00 -3.9199E-07 -2.2448E-06 -1.3395E-06  0.0000E+00  0.0000E+00                                                                                                                                                                                                                                                                                                                                                                                                                                                                                                                                                                                                                                
    1975.0000     125.0000   -5425.0000  168.512  0.19716 -8.11285E-05  1.00000E-16  1.0000E+00  1.00000E-16  1.0000E+00  0.0000E+00 -3.9184E-07 -2.2465E-06 -1.3398E-06  0.0000E+00  0.0000E+00                                                                                                                                                                                                                                                                                                                                                                                                                                                                                                                                                                                                                                
     125.0000     125.0000   -5225.0000  164.725  0.19730 -8.44114E-05  1.00000E-16  1.0000E+00  1.00000E-16  1.0000E+00  0.0000E+00 -4.0201E-07 -2.2454E-06 -1.3479E-06  0.0000E+00  0.0000E+00                                                                                                                                                                                                                                                                                                                                                                                                                                                                                                                                                                                                                                
     375.0000     125.0000   -5225.0000  164.576  0.19730 -8.43831E-05  1.00000E-16  1.0000E+00  1.00000E-16  1.0000E+00  0.0000E+00 -4.0212E-07 -2.2435E-06 -1.3474E-06  0.0000E+00  0.0000E+00                                                                                                                                                                                                                                                                                                                                                                                                                                                                                                                                                                                                                                
     625.0000     125.0000   -5225.0000  164.389  0.19730 -8.44732E-05  1.00000E-16  1.0000E+00  1.00000E-16  1.0000E+00  0.0000E+00 -4.0225E-07 -2.2402E-06 -1.3465E-06  0.0000E+00  0.0000E+00                                                                                                                                                                                                                                                                                                                                                                                                                                                                                                                                                                                                                                
     875.0000     125.0000   -5225.0000  164.256  0.19730 -8.47472E-05  1.00000E-16  1.0000E+00  1.00000E-16  1.0000E+00  0.0000E+00 -4.0230E-07 -2.2373E-06 -1.3457E-06  0.0000E+00  0.0000E+00                                                                                                                                                                                                                                                                                                                                                                                                                                                                                                                                                                                                                                
    1050.0000     125.0000   -5225.0000  164.240  0.19730 -8.49249E-05  1.00000E-16  1.0000E+00  1.00000E-16  1.0000E+00  0.0000E+00 -4.0228E-07 -2.2367E-06 -1.3455E-06  0.0000E+00  0.0000E+00                                                                                                                                                                                                                                                                                                                                                                                                                                                                                                                                                                                                                                
    1225.0000     125.0000   -5225.0000  164.256  0.19730 -8.47472E-05  1.00000E-16  1.0000E+00  1.00000E-16  1.0000E+00  0.0000E+00 -4.0230E-07 -2.2373E-06 -1.3457E-06  0.0000E+00  0.0000E+00                                                                                                                                                                                                                                                                                                                                                                                                                                                                                                                                                                                                                                
    1475.0000     125.0000   -5225.0000  164.389  0.19730 -8.44732E-05  1.00000E-16  1.0000E+00  1.00000E-16  1.0000E+00  0.0000E+00 -4.0225E-07 -2.2402E-06 -1.3465E-06  0.0000E+00  0.0000E+00                                                                                                                                                                                                                                                                                                                                                                                                                                                                                                                                                                                                                                
    1725.0000     125.0000   -5225.0000  164.576  0.19730 -8.43831E-05  1.00000E-16  1.0000E+00  1.00000E-16  1.0000E+00  0.0000E+00 -4.0212E-07 -2.2435E-06 -1.3474E-06  0.0000E+00  0.0000E+00                                                                                                                                                                                                                                                                                                                                                                                                                                                                                                                                                                                                                                
    1975.0000     125.0000   -5225.0000  164.725  0.19730 -8.44114E-05  1.00000E-16  1.0000E+00  1.00000E-16  1.0000E+00  0.0000E+00 -4.0201E-07 -2.2454E-06 -1.3479E-06  0.0000E+00  0.0000E+00                                                                                                                                                                                                                                                                                                                                                                                                                                                                                                                                                                                                                                
     125.0000     125.0000   -4975.0000  152.778  0.19743 -6.77614E-05  1.00000E-16  1.0000E+00  1.00000E-16  1.0000E+00  0.0000E+00 -4.4729E-07 -2.1141E-06 -1.4085E-06  0.0000E+00  0.0000E+00                                                                                                                                                                                                                                                                                                                                                                                                                                                                                                                                                                                                                                
     375.0000     125.0000   -4975.0000  152.498  0.19743 -6.73719E-05  1.00000E-16  1.0000E+00  1.00000E-16  1.0000E+00  0.0000E+00 -4.4837E-07 -2.1136E-06 -1.4110E-06  0.0000E+00  0.0000E+00                                                                                                                                                                                                                                                                                                                                                                                                                                                                                                                                                                                                                                
     625.0000     125.0000   -4975.0000  152.197  0.19743 -6.70642E-05  1.00000E-16  1.0000E+00  1.00000E-16  1.0000E+00  0.0000E+00 -4.4958E-07 -2.1122E-06 -1.4133E-06  0.0000E+00  0.0000E+00                                                                                                                                                                                                                                                                                                                                                                                                                                                                                                                                                                                                                                
     875.0000     125.0000   -4975.0000  152.001  0.19743 -6.69654E-05  1.00000E-16  1.0000E+00  1.00000E-16  1.0000E+00  0.0000E+00 -4.5034E-07 -2.1108E-06 -1.4147E-06  0.0000E+00  0.0000E+00                                                                                                                                                                                                                                                                                                                                                                                                                                                                                                                                                                                                                                
    1050.0000     125.0000   -4975.0000  151.975  0.19743 -6.69691E-05  1.00000E-16  1.0000E+00  1.00000E-16  1.0000E+00  0.0000E+00 -4.5042E-07 -2.1107E-06 -1.4149E-06  0.0000E+00  0.0000E+00                                                                                                                                                                                                                                                                                                                                                                                                                                                                                                                                                                                                                                
    1225.0000     125.0000   -4975.0000  152.001  0.19743 -6.69654E-05  1.00000E-16  1.0000E+00  1.00000E-16  1.0000E+00  0.0000E+00 -4.5034E-07 -2.1108E-06 -1.4147E-06  0.0000E+00  0.0000E+00                                                                                                                                                                                                                                                                                                                                                                                                                                                                                                                                                                                                                                
    1475.0000     125.0000   -4975.0000  152.197  0.19743 -6.70642E-05  1.00000E-16  1.0000E+00  1.00000E-16  1.0000E+00  0.0000E+00 -4.4958E-07 -2.1122E-06 -1.4133E-06  0.0000E+00  0.0000E+00                                                                                                                                                                                                                                                                                                                                                                                                                                                                                                                                                                                                                                
    1725.0000     125.0000   -4975.0000  152.498  0.19743 -6.73719E-05  1.00000E-16  1.0000E+00  1.00000E-16  1.0000E+00  0.0000E+00 -4.4837E-07 -2.1136E-06 -1.4110E-06  0.0000E+00  0.0000E+00                                                                                                                                                                                                                                                                                                                                                                                                                                                                                                                                                                                                                                
    1975.0000     125.0000   -4975.0000  152.778  0.19743 -6.77614E-05  1.00000E-16  1.0000E+00  1.00000E-16  1.0000E+00  0.0000E+00 -4.4729E-07 -2.1141E-06 -1.4085E-06  0.0000E+00  0.0000E+00                                                                                                                                                                                                                                                                                                                                                                                                                                                                                                                                                                                                                                
     125.0000     125.0000   -4725.0000  135.693  0.19752 -2.72615E-05  1.00000E-16  1.0000E+00  1.00000E-16  1.0000E+00  0.0000E+00 -4.6276E-07 -1.4963E-06 -1.2672E-06  0.0000E+00  0.0000E+00                                                                                                                                                                                                                                                                                                                                                                                                                                                                                                                                                                                                                                
     375.0000     125.0000   -4725.0000  135.064  0.19751 -2.61258E-05  1.00000E-16  1.0000E+00  1.00000E-16  1.0000E+00  0.0000E+00 -4.6117E-07 -1.4639E-06 -1.2571E-06  0.0000E+00  0.0000E+00                                                                                                                                                                                                                                                                                                                                                                                                                                                                                                                                                                                                                                
     625.0000     125.0000   -4725.0000  134.564  0.19751 -2.53265E-05  1.00000E-16  1.0000E+00  1.00000E-16  1.0000E+00  0.0000E+00 -4.6064E-07 -1.4436E-06 -1.2511E-06  0.0000E+00  0.0000E+00                                                                                                                                                                                                                                                                                                                                                                                                                                                                                                                                                                                                                                
     875.0000     125.0000   -4725.0000  134.273  0.19751 -2.49329E-05  1.00000E-16  1.0000E+00  1.00000E-16  1.0000E+00  0.0000E+00 -4.5902E-07 -1.4320E-06 -1.2498E-06  0.0000E+00  0.0000E+00                                                                                                                                                                                                                                                                                                                                                                                                                                                                                                                                                                                                                                
    1050.0000     125.0000   -4725.0000  134.222  0.19751 -2.48713E-05  1.00000E-16  1.0000E+00  1.00000E-16  1.0000E+00  0.0000E+00 -4.4969E-07 -1.4277E-06 -1.2624E-06  0.0000E+00  0.0000E+00                                                                                                                                                                                                                                                                                                                                                                                                                                                                                                                                                                                                                                
    1225.0000     125.0000   -4725.0000  134.273  0.19751 -2.49329E-05  1.00000E-16  1.0000E+00  1.00000E-16  1.0000E+00  0.0000E+00 -4.5902E-07 -1.4320E-06 -1.2498E-06  0.0000E+00  0.0000E+00                                                                                                                                                                                                                                                                                                                                                                                                                                                                                                                                                                                                                                
    1475.0000     125.0000   -4725.0000  134.564  0.19751 -2.53265E-05  1.00000E-16  1.0000E+00  1.00000E-16  1.0000E+00  0.0000E+00 -4.6064E-07 -1.4436E-06 -1.2511E-06  0.0000E+00  0.0000E+00                                                                                                                                                                                                                                                                                                                                                                                                                                                                                                                                                                                                                                
    1725.0000     125.0000   -4725.0000  135.064  0.19751 -2.61258E-05  1.00000E-16  1.0000E+00  1.00000E-16  1.0000E+00  0.0000E+00 -4.6117E-07 -1.4639E-06 -1.2571E-06  0.0000E+00  0.0000E+00                                                                                                                                                                                                                                                                                                                                                                                                                                                                                                                                                                                                                                