Title="TOUGHREACT V3.30-OMP: Mineral Abundances(Total or Changes) and/or Exchanged Species: Change in volume fraction"                                                                                                                                                                                                                                                                                                                                                                                                                                                                                                                                                                                                                                                                                                          
Variables= "X(m)"   "Y(m)"   "Z(m)"       "T(C)"   "Porosity"  "Poros_Chg" "Permx(m^2)"     "Kx/Kx0" "Permz(m^2)"     "Kz/Kz0" "quartz(alpha"     "dolomite"    "kaolinite"      "calcite"       "barite"    "anorthite"                                                                                                                                                                                                                                                                                                                                                                                                                                                                                                                                                                                                        
Zone T= "3.16887907E+02 yr" I=      9J=     10K=     23F=Point 
     125.0000     125.0000   -5425.0000  197.196  0.19722 -2.11782E-05  1.00000E-16  1.0000E+00  1.00000E-16  1.0000E+00  0.0000E+00 -3.4761E-07 -8.9923E-06 -3.7969E-06  0.0000E+00  6.5562E-06                                                                                                                                                                                                                                                                                                                                                                                                                                                                                                                                                                                                                                
     375.0000     125.0000   -5425.0000  197.080  0.19722 -2.12256E-05  1.00000E-16  1.0000E+00  1.00000E-16  1.0000E+00  0.0000E+00 -3.4785E-07 -8.9387E-06 -3.7772E-06  0.0000E+00  6.5018E-06                                                                                                                                                                                                                                                                                                                                                                                                                                                                                                                                                                                                                                
     625.0000     125.0000   -5425.0000  196.950  0.19722 -2.13142E-05  1.00000E-16  1.0000E+00  1.00000E-16  1.0000E+00  0.0000E+00 -3.4813E-07 -8.8780E-06 -3.7548E-06  0.0000E+00  6.4402E-06                                                                                                                                                                                                                                                                                                                                                                                                                                                                                                                                                                                                                                
     875.0000     125.0000   -5425.0000  196.896  0.19722 -2.15883E-05  1.00000E-16  1.0000E+00  1.00000E-16  1.0000E+00  0.0000E+00 -3.4819E-07 -8.8519E-06 -3.7451E-06  0.0000E+00  6.4141E-06                                                                                                                                                                                                                                                                                                                                                                                                                                                                                                                                                                                                                                
    1050.0000     125.0000   -5425.0000  196.898  0.19722 -2.26789E-05  1.00000E-16  1.0000E+00  1.00000E-16  1.0000E+00  0.0000E+00 -3.4800E-07 -8.8464E-06 -3.7429E-06  0.0000E+00  6.4102E-06                                                                                                                                                                                                                                                                                                                                                                                                                                                                                                                                                                                                                                
    1225.0000     125.0000   -5425.0000  196.896  0.19722 -2.15883E-05  1.00000E-16  1.0000E+00  1.00000E-16  1.0000E+00  0.0000E+00 -3.4819E-07 -8.8519E-06 -3.7451E-06  0.0000E+00  6.4141E-06                                                                                                                                                                                                                                                                                                                                                                                                                                                                                                                                                                                                                                
    1475.0000     125.0000   -5425.0000  196.950  0.19722 -2.13142E-05  1.00000E-16  1.0000E+00  1.00000E-16  1.0000E+00  0.0000E+00 -3.4813E-07 -8.8780E-06 -3.7548E-06  0.0000E+00  6.4402E-06                                                                                                                                                                                                                                                                                                                                                                                                                                                                                                                                                                                                                                
    1725.0000     125.0000   -5425.0000  197.080  0.19722 -2.12256E-05  1.00000E-16  1.0000E+00  1.00000E-16  1.0000E+00  0.0000E+00 -3.4785E-07 -8.9387E-06 -3.7772E-06  0.0000E+00  6.5018E-06                                                                                                                                                                                                                                                                                                                                                                                                                                                                                                                                                                                                                                
    1975.0000     125.0000   -5425.0000  197.196  0.19722 -2.11782E-05  1.00000E-16  1.0000E+00  1.00000E-16  1.0000E+00  0.0000E+00 -3.4761E-07 -8.9923E-06 -3.7969E-06  0.0000E+00  6.5562E-06                                                                                                                                                                                                                                                                                                                                                                                                                                                                                                                                                                                                                                
     125.0000     125.0000   -5225.0000  189.987  0.19737 -1.35069E-05  1.00000E-16  1.0000E+00  1.00000E-16  1.0000E+00  0.0000E+00 -3.6446E-07 -6.2301E-06 -2.7777E-06  0.0000E+00  3.7431E-06                                                                                                                                                                                                                                                                                                                                                                                                                                                                                                                                                                                                                                
     375.0000     125.0000   -5225.0000  189.824  0.19737 -1.35433E-05  1.00000E-16  1.0000E+00  1.00000E-16  1.0000E+00  0.0000E+00 -3.6479E-07 -6.1790E-06 -2.7588E-06  0.0000E+00  3.6914E-06                                                                                                                                                                                                                                                                                                                                                                                                                                                                                                                                                                                                                                
     625.0000     125.0000   -5225.0000  189.636  0.19737 -1.36072E-05  1.00000E-16  1.0000E+00  1.00000E-16  1.0000E+00  0.0000E+00 -3.6517E-07 -6.1204E-06 -2.7371E-06  0.0000E+00  3.6322E-06                                                                                                                                                                                                                                                                                                                                                                                                                                                                                                                                                                                                                                
     875.0000     125.0000   -5225.0000  189.530  0.19737 -1.37115E-05  1.00000E-16  1.0000E+00  1.00000E-16  1.0000E+00  0.0000E+00 -3.6538E-07 -6.0874E-06 -2.7248E-06  0.0000E+00  3.5989E-06                                                                                                                                                                                                                                                                                                                                                                                                                                                                                                                                                                                                                                
    1050.0000     125.0000   -5225.0000  189.522  0.19737 -1.38440E-05  1.00000E-16  1.0000E+00  1.00000E-16  1.0000E+00  0.0000E+00 -3.6538E-07 -6.0843E-06 -2.7237E-06  0.0000E+00  3.5959E-06                                                                                                                                                                                                                                                                                                                                                                                                                                                                                                                                                                                                                                
    1225.0000     125.0000   -5225.0000  189.530  0.19737 -1.37114E-05  1.00000E-16  1.0000E+00  1.00000E-16  1.0000E+00  0.0000E+00 -3.6538E-07 -6.0874E-06 -2.7248E-06  0.0000E+00  3.5989E-06                                                                                                                                                                                                                                                                                                                                                                                                                                                                                                                                                                                                                                
    1475.0000     125.0000   -5225.0000  189.636  0.19737 -1.36072E-05  1.00000E-16  1.0000E+00  1.00000E-16  1.0000E+00  0.0000E+00 -3.6517E-07 -6.1204E-06 -2.7371E-06  0.0000E+00  3.6322E-06                                                                                                                                                                                                                                                                                                                                                                                                                                                                                                                                                                                                                                
    1725.0000     125.0000   -5225.0000  189.824  0.19737 -1.35433E-05  1.00000E-16  1.0000E+00  1.00000E-16  1.0000E+00  0.0000E+00 -3.6479E-07 -6.1790E-06 -2.7588E-06  0.0000E+00  3.6914E-06                                                                                                                                                                                                                                                                                                                                                                                                                                                                                                                                                                                                                                
    1975.0000     125.0000   -5225.0000  189.987  0.19737 -1.35069E-05  1.00000E-16  1.0000E+00  1.00000E-16  1.0000E+00  0.0000E+00 -3.6446E-07 -6.2301E-06 -2.7777E-06  0.0000E+00  3.7431E-06                                                                                                                                                                                                                                                                                                                                                                                                                                                                                                                                                                                                                                
     125.0000     125.0000   -4975.0000  170.389  0.19749 -1.05267E-05  1.00000E-16  1.0000E+00  1.00000E-16  1.0000E+00  0.0000E+00 -3.9922E-07 -2.4160E-06 -1.3595E-06  0.0000E+00  0.0000E+00                                                                                                                                                                                                                                                                                                                                                                                                                                                                                                                                                                                                                                
     375.0000     125.0000   -4975.0000  170.041  0.19749 -1.05111E-05  1.00000E-16  1.0000E+00  1.00000E-16  1.0000E+00  0.0000E+00 -3.9957E-07 -2.4066E-06 -1.3585E-06  0.0000E+00  0.0000E+00                                                                                                                                                                                                                                                                                                                                                                                                                                                                                                                                                                                                                                
     625.0000     125.0000   -4975.0000  169.682  0.19748 -1.05116E-05  1.00000E-16  1.0000E+00  1.00000E-16  1.0000E+00  0.0000E+00 -3.9994E-07 -2.3969E-06 -1.3575E-06  0.0000E+00  0.0000E+00                                                                                                                                                                                                                                                                                                                                                                                                                                                                                                                                                                                                                                
     875.0000     125.0000   -4975.0000  169.461  0.19748 -1.05306E-05  1.00000E-16  1.0000E+00  1.00000E-16  1.0000E+00  0.0000E+00 -4.0017E-07 -2.3910E-06 -1.3568E-06  0.0000E+00  0.0000E+00                                                                                                                                                                                                                                                                                                                                                                                                                                                                                                                                                                                                                                
    1050.0000     125.0000   -4975.0000  169.434  0.19748 -1.05434E-05  1.00000E-16  1.0000E+00  1.00000E-16  1.0000E+00  0.0000E+00 -4.0020E-07 -2.3902E-06 -1.3567E-06  0.0000E+00  0.0000E+00                                                                                                                                                                                                                                                                                                                                                                                                                                                                                                                                                                                                                                
    1225.0000     125.0000   -4975.0000  169.461  0.19748 -1.05306E-05  1.00000E-16  1.0000E+00  1.00000E-16  1.0000E+00  0.0000E+00 -4.0017E-07 -2.3910E-06 -1.3568E-06  0.0000E+00  0.0000E+00                                                                                                                                                                                                                                                                                                                                                                                                                                                                                                                                                                                                                                
    1475.0000     125.0000   -4975.0000  169.682  0.19748 -1.05116E-05  1.00000E-16  1.0000E+00  1.00000E-16  1.0000E+00  0.0000E+00 -3.9994E-07 -2.3969E-06 -1.3575E-06  0.0000E+00  0.0000E+00                                                                                                                                                                                                                                                                                                                                                                                                                                                                                                                                                                                                                                
    1725.0000     125.0000   -4975.0000  170.041  0.19749 -1.05111E-05  1.00000E-16  1.0000E+00  1.00000E-16  1.0000E+00  0.0000E+00 -3.9957E-07 -2.4066E-06 -1.3585E-06  0.0000E+00  0.0000E+00                                                                                                                                                                                                                                                                                                                                                                                                                                                                                                                                                                                                                                
    1975.0000     125.0000   -4975.0000  170.389  0.19749 -1.05267E-05  1.00000E-16  1.0000E+00  1.00000E-16  1.0000E+00  0.0000E+00 -3.9922E-07 -2.4160E-06 -1.3595E-06  0.0000E+00  0.0000E+00                                                                                                                                                                                                                                                                                                                                                                                                                                                                                                                                                                                                                                
     125.0000     125.0000   -4725.0000  143.995  0.19754 -3.27165E-06  1.00000E-16  1.0000E+00  1.00000E-16  1.0000E+00  0.0000E+00 -4.3827E-07 -1.7478E-06 -1.2653E-06  0.0000E+00  0.0000E+00                                                                                                                                                                                                                                                                                                                                                                                                                                                                                                                                                                                                                                
     375.0000     125.0000   -4725.0000  143.181  0.19754 -3.16400E-06  1.00000E-16  1.0000E+00  1.00000E-16  1.0000E+00  0.0000E+00 -4.3922E-07 -1.7269E-06 -1.2603E-06  0.0000E+00  0.0000E+00                                                                                                                                                                                                                                                                                                                                                                                                                                                                                                                                                                                                                                
     625.0000     125.0000   -4725.0000  142.549  0.19753 -3.09202E-06  1.00000E-16  1.0000E+00  1.00000E-16  1.0000E+00  0.0000E+00 -4.4006E-07 -1.7117E-06 -1.2568E-06  0.0000E+00  0.0000E+00                                                                                                                                                                                                                                                                                                                                                                                                                                                                                                                                                                                                                                
     875.0000     125.0000   -4725.0000  142.193  0.19753 -3.06100E-06  1.00000E-16  1.0000E+00  1.00000E-16  1.0000E+00  0.0000E+00 -4.4030E-07 -1.7031E-06 -1.2551E-06  0.0000E+00  0.0000E+00                                                                                                                                                                                                                                                                                                                                                                                                                                                                                                                                                                                                                                
    1050.0000     125.0000   -4725.0000  142.130  0.19753 -3.05771E-06  1.00000E-16  1.0000E+00  1.00000E-16  1.0000E+00  0.0000E+00 -4.3870E-07 -1.7013E-06 -1.2571E-06  0.0000E+00  0.0000E+00                                                                                                                                                                                                                                                                                                                                                                                                                                                                                                                                                                                                                                
    1225.0000     125.0000   -4725.0000  142.193  0.19753 -3.06100E-06  1.00000E-16  1.0000E+00  1.00000E-16  1.0000E+00  0.0000E+00 -4.4030E-07 -1.7031E-06 -1.2551E-06  0.0000E+00  0.0000E+00                                                                                                                                                                                                                                                                                                                                                                                                                                                                                                                                                                                                                                
    1475.0000     125.0000   -4725.0000  142.549  0.19753 -3.09202E-06  1.00000E-16  1.0000E+00  1.00000E-16  1.0000E+00  0.0000E+00 -4.4006E-07 -1.7117E-06 -1.2568E-06  0.0000E+00  0.0000E+00                                                                                                                                                                                                                                                                                                                                                                                                                                                                                                                                                                                                                                
    1725.0000     125.0000   -4725.0000  143.181  0.19754 -3.16400E-06  1.00000E-16  1.0000E+00  1.00000E-16  1.0000E+00  0.0000E+00 -4.3922E-07 -1.7269E-06 -1.2603E-06  0.0000E+00  0.0000E+00                                                                                                                                                                                                                                                                                                                                                                                                                                                                                                                                                                                                                                