Title="TREACTMECH V1.0-OMP-MPI displacement.tec: Nodal Displacements"                                                                                                                                                                                                                                                                                                                                                                                                                                                                                                                                                                                                                                                                                                                                                           
Variables= "X(m)"     "Y(m)"      "Z(m)"      "Disp_x"      "Disp_y"      "Disp_z"                                                                                                                                                                                                                                                                                                                                                                                                                                                                                                                                                                                                                                                                                                                                              
Zone T= "5.00000000E-02 sec" I=    10 J=    11 K=    24 F=Point
  0.000000E+00  0.000000E+00 -5.500000E+03  0.000000E+00  0.000000E+00  0.000000E+00                                                                                                                                                                                                                                                                                                                                                                                                                                                                                                                                                                                                                                                                                                                                            
  2.500000E+02  0.000000E+00 -5.500000E+03  6.691497E-03  0.000000E+00  0.000000E+00                                                                                                                                                                                                                                                                                                                                                                                                                                                                                                                                                                                                                                                                                                                                            
  5.000000E+02  0.000000E+00 -5.500000E+03  1.051149E-02  0.000000E+00  0.000000E+00                                                                                                                                                                                                                                                                                                                                                                                                                                                                                                                                                                                                                                                                                                                                            
  7.500000E+02  0.000000E+00 -5.500000E+03  8.982855E-03  0.000000E+00  0.000000E+00                                                                                                                                                                                                                                                                                                                                                                                                                                                                                                                                                                                                                                                                                                                                            
  1.000000E+03  0.000000E+00 -5.500000E+03  1.891809E-03  0.000000E+00  0.000000E+00                                                                                                                                                                                                                                                                                                                                                                                                                                                                                                                                                                                                                                                                                                                                            
  1.100000E+03  0.000000E+00 -5.500000E+03 -1.891846E-03  0.000000E+00  0.000000E+00                                                                                                                                                                                                                                                                                                                                                                                                                                                                                                                                                                                                                                                                                                                                            
  1.350000E+03  0.000000E+00 -5.500000E+03 -8.982883E-03  0.000000E+00  0.000000E+00                                                                                                                                                                                                                                                                                                                                                                                                                                                                                                                                                                                                                                                                                                                                            
  1.600000E+03  0.000000E+00 -5.500000E+03 -1.051151E-02  0.000000E+00  0.000000E+00                                                                                                                                                                                                                                                                                                                                                                                                                                                                                                                                                                                                                                                                                                                                            
  1.850000E+03  0.000000E+00 -5.500000E+03 -6.691506E-03  0.000000E+00  0.000000E+00                                                                                                                                                                                                                                                                                                                                                                                                                                                                                                                                                                                                                                                                                                                                            
  2.100000E+03  0.000000E+00 -5.500000E+03  0.000000E+00  0.000000E+00  0.000000E+00                                                                                                                                                                                                                                                                                                                                                                                                                                                                                                                                                                                                                                                                                                                                            
  0.000000E+00  2.500000E+02 -5.500000E+03  0.000000E+00  4.045313E-05  0.000000E+00                                                                                                                                                                                                                                                                                                                                                                                                                                                                                                                                                                                                                                                                                                                                            
  2.500000E+02  2.500000E+02 -5.500000E+03  6.691576E-03  4.084798E-05  0.000000E+00                                                                                                                                                                                                                                                                                                                                                                                                                                                                                                                                                                                                                                                                                                                                            
  5.000000E+02  2.500000E+02 -5.500000E+03  1.051176E-02  4.210192E-05  0.000000E+00                                                                                                                                                                                                                                                                                                                                                                                                                                                                                                                                                                                                                                                                                                                                            
  7.500000E+02  2.500000E+02 -5.500000E+03  8.983026E-03  4.364232E-05  0.000000E+00                                                                                                                                                                                                                                                                                                                                                                                                                                                                                                                                                                                                                                                                                                                                            
  1.000000E+03  2.500000E+02 -5.500000E+03  1.891933E-03  4.458542E-05  0.000000E+00                                                                                                                                                                                                                                                                                                                                                                                                                                                                                                                                                                                                                                                                                                                                            
  1.100000E+03  2.500000E+02 -5.500000E+03 -1.891970E-03  4.458666E-05  0.000000E+00                                                                                                                                                                                                                                                                                                                                                                                                                                                                                                                                                                                                                                                                                                                                            
  1.350000E+03  2.500000E+02 -5.500000E+03 -8.983051E-03  4.364625E-05  0.000000E+00                                                                                                                                                                                                                                                                                                                                                                                                                                                                                                                                                                                                                                                                                                                                            
  1.600000E+03  2.500000E+02 -5.500000E+03 -1.051177E-02  4.210377E-05  0.000000E+00                                                                                                                                                                                                                                                                                                                                                                                                                                                                                                                                                                                                                                                                                                                                            
  1.850000E+03  2.500000E+02 -5.500000E+03 -6.691584E-03  4.084736E-05  0.000000E+00                                                                                                                                                                                                                                                                                                                                                                                                                                                                                                                                                                                                                                                                                                                                            
  2.100000E+03  2.500000E+02 -5.500000E+03  0.000000E+00  4.045281E-05  0.000000E+00                                                                                                                                                                                                                                                                                                                                                                                                                                                                                                                                                                                                                                                                                                                                            
  0.000000E+00  5.000000E+02 -5.500000E+03  0.000000E+00  7.201867E-05  0.000000E+00                                                                                                                                                                                                                                                                                                                                                                                                                                                                                                                                                                                                                                                                                                                                            
  2.500000E+02  5.000000E+02 -5.500000E+03  6.691905E-03  7.284830E-05  0.000000E+00                                                                                                                                                                                                                                                                                                                                                                                                                                                                                                                                                                                                                                                                                                                                            
  5.000000E+02  5.000000E+02 -5.500000E+03  1.051218E-02  7.463195E-05  0.000000E+00                                                                                                                                                                                                                                                                                                                                                                                                                                                                                                                                                                                                                                                                                                                                            
  7.500000E+02  5.000000E+02 -5.500000E+03  8.983674E-03  7.698043E-05  0.000000E+00                                                                                                                                                                                                                                                                                                                                                                                                                                                                                                                                                                                                                                                                                                                                            
  1.000000E+03  5.000000E+02 -5.500000E+03  1.891951E-03  7.844367E-05  0.000000E+00                                                                                                                                                                                                                                                                                                                                                                                                                                                                                                                                                                                                                                                                                                                                            
  1.100000E+03  5.000000E+02 -5.500000E+03 -1.891984E-03  7.844573E-05  0.000000E+00                                                                                                                                                                                                                                                                                                                                                                                                                                                                                                                                                                                                                                                                                                                                            
  1.350000E+03  5.000000E+02 -5.500000E+03 -8.983697E-03  7.698515E-05  0.000000E+00                                                                                                                                                                                                                                                                                                                                                                                                                                                                                                                                                                                                                                                                                                                                            
  1.600000E+03  5.000000E+02 -5.500000E+03 -1.051220E-02  7.463401E-05  0.000000E+00                                                                                                                                                                                                                                                                                                                                                                                                                                                                                                                                                                                                                                                                                                                                            
  1.850000E+03  5.000000E+02 -5.500000E+03 -6.691911E-03  7.284662E-05  0.000000E+00                                                                                                                                                                                                                                                                                                                                                                                                                                                                                                                                                                                                                                                                                                                                            
  2.100000E+03  5.000000E+02 -5.500000E+03  0.000000E+00  7.201623E-05  0.000000E+00                                                                                                                                                                                                                                                                                                                                                                                                                                                                                                                                                                                                                                                                                                                                            
  0.000000E+00  7.500000E+02 -5.500000E+03  0.000000E+00  8.804260E-05  0.000000E+00                                                                                                                                                                                                                                                                                                                                                                                                                                                                                                                                                                                                                                                                                                                                            
  2.500000E+02  7.500000E+02 -5.500000E+03  6.692115E-03  8.840124E-05  0.000000E+00                                                                                                                                                                                                                                                                                                                                                                                                                                                                                                                                                                                                                                                                                                                                            
  5.000000E+02  7.500000E+02 -5.500000E+03  1.051284E-02  9.017682E-05  0.000000E+00                                                                                                                                                                                                                                                                                                                                                                                                                                                                                                                                                                                                                                                                                                                                            
  7.500000E+02  7.500000E+02 -5.500000E+03  8.984017E-03  9.190250E-05  0.000000E+00                                                                                                                                                                                                                                                                                                                                                                                                                                                                                                                                                                                                                                                                                                                                            
  1.000000E+03  7.500000E+02 -5.500000E+03  1.892292E-03  9.289435E-05  0.000000E+00                                                                                                                                                                                                                                                                                                                                                                                                                                                                                                                                                                                                                                                                                                                                            