Title="TREACTMECH V1.0-OMP-MPI stress-strain.tec: Total Stresses (Pa), Strains"                                                                                                                                                                                                                                                                                                                                                                                                                                                                                                                                                                                                                                                                                                                                                 
Variables= "X(m)"     "Y(m)"      "Z(m)"    "Sigma_xx"    "Sigma_yy"    "Sigma_zz"    "Sigma_yz"    "Sigma_xz"    "Sigma_xy"   "Strain_xx"   "Strain_yy"   "Strain_zz"   "Strain_yz"   "Strain_xz"   "Strain_xy"  "Vol_Strain"   "E_fail_xx"   "E_fail_yy"   "E_fail_zz"  "E_fail_yz2"  "E_fail_xz2"  "E_fail_xy2"  "E_fail_vol"                                                                                                                                                                                                                                                                                                                                                                                                                                                                                                
Zone T= "1.00000000E+09 sec" I=     9 J=    10 K=    23 F=Point
  1.250000E+02  1.250000E+02 -5.425000E+03 -7.514619E+07 -1.143319E+08 -1.261772E+08 -3.833841E-01  3.284459E+03  5.765748E+00  2.691501E-05  1.619539E-07 -4.823200E-05 -8.922550E-11  7.643966E-07  9.993963E-10 -2.115503E-05  0.000000E+00  0.000000E+00  0.000000E+00  0.000000E+00  0.000000E+00  0.000000E+00  0.000000E+00                                                                                                                                                                                                                                                                                                                                                                                                                                                                                              
  3.750000E+02  1.250000E+02 -5.425000E+03 -7.517104E+07 -1.141438E+08 -1.259010E+08  5.572591E-01  1.235573E+04  1.931772E+01  1.550071E-05  1.653729E-07 -4.263385E-05  1.296917E-10  2.875564E-06  3.348404E-09 -2.696777E-05  0.000000E+00  0.000000E+00  0.000000E+00  0.000000E+00  0.000000E+00  0.000000E+00  0.000000E+00                                                                                                                                                                                                                                                                                                                                                                                                                                                                                              
  6.250000E+02  1.250000E+02 -5.425000E+03 -7.522860E+07 -1.138124E+08 -1.253924E+08  2.731987E+00  2.230469E+04  2.408269E+01 -5.955728E-06  1.711925E-07 -3.083277E-05  6.358190E-10  5.191000E-06  4.174332E-09 -3.661731E-05  0.000000E+00  0.000000E+00  0.000000E+00  0.000000E+00  0.000000E+00  0.000000E+00  0.000000E+00                                                                                                                                                                                                                                                                                                                                                                                                                                                                                              
  8.750000E+02  1.250000E+02 -5.425000E+03 -7.529857E+07 -1.134783E+08 -1.248660E+08  5.328828E+00  1.734793E+04  1.510034E+01 -2.865734E-05  1.763936E-07 -1.772612E-05  1.240185E-09  4.037407E-06  2.617393E-09 -4.620706E-05  0.000000E+00  0.000000E+00  0.000000E+00  0.000000E+00  0.000000E+00  0.000000E+00  0.000000E+00                                                                                                                                                                                                                                                                                                                                                                                                                                                                                              
  1.050000E+03  1.250000E+02 -5.425000E+03 -7.532856E+07 -1.133349E+08 -1.246394E+08  6.468198E+00  3.930436E+01  1.693841E-01 -3.841306E-05  1.783786E-07 -1.205339E-05  1.505352E-09  9.147357E-09  2.935992E-11 -5.028807E-05  0.000000E+00  0.000000E+00  0.000000E+00  0.000000E+00  0.000000E+00  0.000000E+00  0.000000E+00                                                                                                                                                                                                                                                                                                                                                                                                                                                                                              
  1.225000E+03  1.250000E+02 -5.425000E+03 -7.529874E+07 -1.134783E+08 -1.248654E+08  5.342817E+00 -1.727240E+04 -1.476381E+01 -2.868068E-05  1.764331E-07 -1.768597E-05  1.243441E-09 -4.019829E-06 -2.559060E-09 -4.619022E-05  0.000000E+00  0.000000E+00  0.000000E+00  0.000000E+00  0.000000E+00  0.000000E+00  0.000000E+00                                                                                                                                                                                                                                                                                                                                                                                                                                                                                              
  1.475000E+03  1.250000E+02 -5.425000E+03 -7.522901E+07 -1.138122E+08 -1.253912E+08  2.764443E+00 -2.224266E+04 -2.381061E+01 -6.009115E-06  1.712826E-07 -3.074091E-05  6.433726E-10 -5.176563E-06 -4.127173E-09 -3.657874E-05  0.000000E+00  0.000000E+00  0.000000E+00  0.000000E+00  0.000000E+00  0.000000E+00  0.000000E+00                                                                                                                                                                                                                                                                                                                                                                                                                                                                                              
  1.725000E+03  1.250000E+02 -5.425000E+03 -7.517162E+07 -1.141435E+08 -1.258992E+08  6.046594E-01 -1.231543E+04 -1.913707E+01  1.542496E-05  1.655000E-07 -4.250342E-05  1.407232E-10 -2.866187E-06 -3.317092E-09 -2.691296E-05  0.000000E+00  0.000000E+00  0.000000E+00  0.000000E+00  0.000000E+00  0.000000E+00  0.000000E+00                                                                                                                                                                                                                                                                                                                                                                                                                                                                                              
  1.975000E+03  1.250000E+02 -5.425000E+03 -7.514686E+07 -1.143316E+08 -1.261751E+08 -3.276602E-01 -3.270552E+03 -5.700962E+00  2.682741E-05  1.621012E-07 -4.808110E-05 -7.625679E-11 -7.611600E-07 -9.881667E-10 -2.109159E-05  0.000000E+00  0.000000E+00  0.000000E+00  0.000000E+00  0.000000E+00  0.000000E+00  0.000000E+00                                                                                                                                                                                                                                                                                                                                                                                                                                                                                              
  1.250000E+02  1.250000E+02 -5.225000E+03 -7.278449E+07 -1.107612E+08 -1.222232E+08  8.481247E-01  1.013258E+04  6.688547E+00  2.689614E-05  1.541684E-07 -4.543668E-05  1.973852E-10  2.358169E-06  1.159348E-09 -1.838637E-05  0.000000E+00  0.000000E+00  0.000000E+00  0.000000E+00  0.000000E+00  0.000000E+00  0.000000E+00                                                                                                                                                                                                                                                                                                                                                                                                                                                                                              
  3.750000E+02  1.250000E+02 -5.225000E+03 -7.279882E+07 -1.105687E+08 -1.219568E+08  3.853896E+00  3.951175E+04  2.197384E+01  1.627582E-05  1.580301E-07 -4.115050E-05  8.969223E-10  9.195623E-06  3.808798E-09 -2.471666E-05  0.000000E+00  0.000000E+00  0.000000E+00  0.000000E+00  0.000000E+00  0.000000E+00  0.000000E+00                                                                                                                                                                                                                                                                                                                                                                                                                                                                                              
  6.250000E+02  1.250000E+02 -5.225000E+03 -7.284361E+07 -1.102097E+08 -1.214388E+08  1.039409E+01  7.422177E+04  2.839323E+01 -5.159732E-06  1.647250E-07 -3.129670E-05  2.419029E-09  1.727373E-05  4.921493E-09 -3.629170E-05  0.000000E+00  0.000000E+00  0.000000E+00  0.000000E+00  0.000000E+00  0.000000E+00  0.000000E+00                                                                                                                                                                                                                                                                                                                                                                                                                                                                                              
  8.750000E+02  1.250000E+02 -5.225000E+03 -7.290715E+07 -1.098219E+08 -1.208611E+08  1.794953E+01  6.124158E+04  1.818580E+01 -2.968418E-05  1.708644E-07 -1.906553E-05  4.177418E-09  1.425284E-05  3.152206E-09 -4.857884E-05  0.000000E+00  0.000000E+00  0.000000E+00  0.000000E+00  0.000000E+00  0.000000E+00  0.000000E+00                                                                                                                                                                                                                                                                                                                                                                                                                                                                                              
  1.050000E+03  1.250000E+02 -5.225000E+03 -7.294103E+07 -1.096496E+08 -1.206004E+08  2.129598E+01  1.431018E+02  1.785932E-01 -4.103835E-05  1.732451E-07 -1.330206E-05  4.956243E-09  3.330427E-08  3.095616E-11 -5.416716E-05  0.000000E+00  0.000000E+00  0.000000E+00  0.000000E+00  0.000000E+00  0.000000E+00  0.000000E+00                                                                                                                                                                                                                                                                                                                                                                                                                                                                                              
  1.225000E+03  1.250000E+02 -5.225000E+03 -7.290733E+07 -1.098218E+08 -1.208605E+08  1.800499E+01 -6.096691E+04 -1.783157E+01 -2.970766E-05  1.709060E-07 -1.902435E-05  4.190325E-09 -1.418891E-05 -3.090805E-09 -4.856111E-05  0.000000E+00  0.000000E+00  0.000000E+00  0.000000E+00  0.000000E+00  0.000000E+00  0.000000E+00                                                                                                                                                                                                                                                                                                                                                                                                                                                                                              
  1.475000E+03  1.250000E+02 -5.225000E+03 -7.284401E+07 -1.102095E+08 -1.214375E+08  1.052013E+01 -7.399651E+04 -2.810612E+01 -5.213339E-06  1.648199E-07 -3.120262E-05  2.448365E-09 -1.722131E-05 -4.871728E-09 -3.625114E-05  0.000000E+00  0.000000E+00  0.000000E+00  0.000000E+00  0.000000E+00  0.000000E+00  0.000000E+00                                                                                                                                                                                                                                                                                                                                                                                                                                                                                              
  1.725000E+03  1.250000E+02 -5.225000E+03 -7.279939E+07 -1.105684E+08 -1.219550E+08  4.032687E+00 -3.936575E+04 -2.178270E+01  1.619988E-05  1.581642E-07 -4.101711E-05  9.385326E-10 -9.161643E-06 -3.775668E-09 -2.465907E-05  0.000000E+00  0.000000E+00  0.000000E+00  0.000000E+00  0.000000E+00  0.000000E+00  0.000000E+00                                                                                                                                                                                                                                                                                                                                                                                                                                                                                              
  1.975000E+03  1.250000E+02 -5.225000E+03 -7.278515E+07 -1.107608E+08 -1.222210E+08  1.055021E+00 -1.008227E+04 -6.620197E+00  2.680842E-05  1.543238E-07 -4.528250E-05  2.455365E-10 -2.346460E-06 -1.147501E-09 -1.831976E-05  0.000000E+00  0.000000E+00  0.000000E+00  0.000000E+00  0.000000E+00  0.000000E+00  0.000000E+00                                                                                                                                                                                                                                                                                                                                                                                                                                                                                              
  1.250000E+02  1.250000E+02 -4.975000E+03 -6.984827E+07 -1.062941E+08 -1.172834E+08  1.735940E-01  1.136442E+04  8.789157E+00  2.577239E-05  1.360481E-07 -4.269626E-05  4.040076E-11  2.644856E-06  1.523454E-09 -1.678783E-05  0.000000E+00  0.000000E+00  0.000000E+00  0.000000E+00  0.000000E+00  0.000000E+00  0.000000E+00                                                                                                                                                                                                                                                                                                                                                                                                                                                                                              
  3.750000E+02  1.250000E+02 -4.975000E+03 -6.983972E+07 -1.061039E+08 -1.170460E+08  5.266755E+00  5.047576E+04  2.800592E+01  1.730236E-05  1.408207E-07 -4.069971E-05  1.225739E-09  1.174729E-05  4.854360E-09 -2.325653E-05  0.000000E+00  0.000000E+00  0.000000E+00  0.000000E+00  0.000000E+00  0.000000E+00  0.000000E+00                                                                                                                                                                                                                                                                                                                                                                                                                                                                                              
  6.250000E+02  1.250000E+02 -4.975000E+03 -6.983838E+07 -1.057099E+08 -1.165173E+08  1.611877E+01  1.236949E+05  3.762195E+01 -2.043577E-06  1.492803E-07 -3.328019E-05  3.751344E-09  2.878767E-05  6.521137E-09 -3.517449E-05  0.000000E+00  0.000000E+00  0.000000E+00  0.000000E+00  0.000000E+00  0.000000E+00  0.000000E+00                                                                                                                                                                                                                                                                                                                                                                                                                                                                                              
  8.750000E+02  1.250000E+02 -4.975000E+03 -6.990897E+07 -1.052372E+08 -1.158110E+08  2.883025E+01  1.293486E+05  2.493412E+01 -3.151058E-05  1.573223E-07 -1.814520E-05  6.709704E-09  3.010347E-05  4.321914E-09 -4.949846E-05  0.000000E+00  0.000000E+00  0.000000E+00  0.000000E+00  0.000000E+00  0.000000E+00  0.000000E+00                                                                                                                                                                                                                                                                                                                                                                                                                                                                                              
  1.050000E+03  1.250000E+02 -4.975000E+03 -6.995290E+07 -1.050048E+08 -1.154433E+08  3.461710E+01  2.689094E+02  1.990234E-01 -4.700406E-05  1.605208E-07 -8.866534E-06  8.056485E-09  6.258365E-08  3.449740E-11 -5.571007E-05  0.000000E+00  0.000000E+00  0.000000E+00  0.000000E+00  0.000000E+00  0.000000E+00  0.000000E+00                                                                                                                                                                                                                                                                                                                                                                                                                                                                                              
  1.225000E+03  1.250000E+02 -4.975000E+03 -6.990913E+07 -1.052370E+08 -1.158104E+08  2.893982E+01 -1.288341E+05 -2.453889E+01 -3.153412E-05  1.573687E-07 -1.810137E-05  6.735202E-09 -2.998373E-05 -4.253407E-09 -4.947812E-05  0.000000E+00  0.000000E+00  0.000000E+00  0.000000E+00  0.000000E+00  0.000000E+00  0.000000E+00                                                                                                                                                                                                                                                                                                                                                                                                                                                                                              
  1.475000E+03  1.250000E+02 -4.975000E+03 -6.983875E+07 -1.057097E+08 -1.165159E+08  1.636858E+01 -1.232745E+05 -3.730264E+01 -2.097129E-06  1.493861E-07 -3.318040E-05  3.809481E-09 -2.868983E-05 -6.465792E-09 -3.512814E-05  0.000000E+00  0.000000E+00  0.000000E+00  0.000000E+00  0.000000E+00  0.000000E+00  0.000000E+00                                                                                                                                                                                                                                                                                                                                                                                                                                                                                              
  1.725000E+03  1.250000E+02 -4.975000E+03 -6.984025E+07 -1.061035E+08 -1.170440E+08  5.617020E+00 -5.020502E+04 -2.779572E+01  1.722683E-05  1.409696E-07 -4.055875E-05  1.307256E-09 -1.168428E-05 -4.817924E-09 -2.319095E-05  0.000000E+00  0.000000E+00  0.000000E+00  0.000000E+00  0.000000E+00  0.000000E+00  0.000000E+00                                                                                                                                                                                                                                                                                                                                                                                                                                                                                              
  1.975000E+03  1.250000E+02 -4.975000E+03 -6.984887E+07 -1.062937E+08 -1.172812E+08  5.745233E-01 -1.127158E+04 -8.714299E+00  2.568544E-05  1.362202E-07 -4.253378E-05  1.337096E-10 -2.623250E-06 -1.510478E-09 -1.671212E-05  0.000000E+00  0.000000E+00  0.000000E+00  0.000000E+00  0.000000E+00  0.000000E+00  0.000000E+00                                                                                                                                                                                                                                                                                                                                                                                                                                                                                              
  1.250000E+02  1.250000E+02 -4.725000E+03 -6.696803E+07 -1.018334E+08 -1.123245E+08 -5.206359E+00  6.624460E+02  1.119972E+01  2.065559E-05  1.085644E-07 -3.782945E-05 -1.211683E-09  1.541719E-07  1.941285E-09 -1.706530E-05  0.000000E+00  0.000000E+00  0.000000E+00  0.000000E+00  0.000000E+00  0.000000E+00  0.000000E+00                                                                                                                                                                                                                                                                                                                                                                                                                                                                                              
  3.750000E+02  1.250000E+02 -4.725000E+03 -6.693455E+07 -1.016497E+08 -1.121224E+08  3.201056E-01  1.557671E+04  3.509929E+01  1.470071E-05  1.142076E-07 -3.827583E-05  7.449859E-11  3.625189E-06  6.083876E-09 -2.346091E-05  0.000000E+00  0.000000E+00  0.000000E+00  0.000000E+00  0.000000E+00  0.000000E+00  0.000000E+00                                                                                                                                                                                                                                                                                                                                                                                                                                                                                              
  6.250000E+02  1.250000E+02 -4.725000E+03 -6.684929E+07 -1.012487E+08 -1.116705E+08  1.237462E+01  9.454817E+04  4.874674E+01  2.322480E-06  1.243007E-07 -3.820166E-05  2.879962E-09  2.200432E-05  8.449435E-09 -3.575488E-05  0.000000E+00  0.000000E+00  0.000000E+00  0.000000E+00  0.000000E+00  0.000000E+00  0.000000E+00                                                                                                                                                                                                                                                                                                                                                                                                                                                                                              
  8.750000E+02  1.250000E+02 -4.725000E+03 -6.678336E+07 -1.005946E+08 -1.107147E+08  2.738863E+01  2.215158E+05  3.391640E+01 -2.693311E-05  1.341918E-07 -1.833999E-05  6.374193E-09  5.155366E-05  5.878842E-09 -4.513891E-05  0.000000E+00  0.000000E+00  0.000000E+00  0.000000E+00  0.000000E+00  0.000000E+00  0.000000E+00                                                                                                                                                                                                                                                                                                                                                                                                                                                                                              
  1.050000E+03  1.250000E+02 -4.725000E+03 -6.687572E+07 -1.002450E+08 -1.101013E+08  3.470752E+01  3.749931E+02  2.211912E-01 -5.315945E-05  1.382540E-07  1.004764E-06  8.077528E-09  8.727266E-08  3.833980E-11 -5.201643E-05  0.000000E+00  0.000000E+00  0.000000E+00  0.000000E+00  0.000000E+00  0.000000E+00  0.000000E+00                                                                                                                                                                                                                                                                                                                                                                                                                                                                                              
  1.225000E+03  1.250000E+02 -4.725000E+03 -6.678348E+07 -1.005945E+08 -1.107140E+08  2.755645E+01 -2.207971E+05 -3.349136E+01 -2.695562E-05  1.342432E-07 -1.829312E-05  6.413250E-09 -5.138641E-05 -5.805169E-09 -4.511450E-05  0.000000E+00  0.000000E+00  0.000000E+00  0.000000E+00  0.000000E+00  0.000000E+00  0.000000E+00                                                                                                                                                                                                                                                                                                                                                                                                                                                                                              
  1.475000E+03  1.250000E+02 -4.725000E+03 -6.684956E+07 -1.012484E+08 -1.116689E+08  1.274350E+01 -9.396485E+04 -4.841659E+01  2.271209E-06  1.244146E-07 -3.809519E-05  2.965811E-09 -2.186857E-05 -8.392210E-09 -3.569956E-05  0.000000E+00  0.000000E+00  0.000000E+00  0.000000E+00  0.000000E+00  0.000000E+00  0.000000E+00                                                                                                                                                                                                                                                                                                                                                                                                                                                                                              
  1.725000E+03  1.250000E+02 -4.725000E+03 -6.693493E+07 -1.016493E+08 -1.121203E+08  8.236113E-01 -1.520552E+04 -3.488377E+01  1.462902E-05  1.143646E-07 -3.812649E-05  1.916801E-10 -3.538802E-06 -6.046521E-09 -2.338310E-05  0.000000E+00  0.000000E+00  0.000000E+00  0.000000E+00  0.000000E+00  0.000000E+00  0.000000E+00                                                                                                                                                                                                                                                                                                                                                                                                                                                                                              