Title="TREACTMECH V1.0-OMP-MPI stress-strain.tec: Total Stresses (Pa), Strains"                                                                                                                                                                                                                                                                                                                                                                                                                                                                                                                                                                                                                                                                                                                                                 
Variables= "X(m)"     "Y(m)"      "Z(m)"    "Sigma_xx"    "Sigma_yy"    "Sigma_zz"    "Sigma_yz"    "Sigma_xz"    "Sigma_xy"   "Strain_xx"   "Strain_yy"   "Strain_zz"   "Strain_yz"   "Strain_xz"   "Strain_xy"  "Vol_Strain"   "E_fail_xx"   "E_fail_yy"   "E_fail_zz"  "E_fail_yz2"  "E_fail_xz2"  "E_fail_xy2"  "E_fail_vol"                                                                                                                                                                                                                                                                                                                                                                                                                                                                                                
Zone T= "5.18400000E+05 sec" I=     9 J=    10 K=    23 F=Point
  1.250000E+02  1.250000E+02 -5.425000E+03 -7.525590E+07 -1.143896E+08 -1.261212E+08  1.313517E+00  2.874530E+03  7.944082E+00  2.240039E-05  1.581269E-07 -3.838599E-05  3.056965E-10  6.689933E-07  1.376974E-09 -1.582748E-05  0.000000E+00  0.000000E+00  0.000000E+00  0.000000E+00  0.000000E+00  0.000000E+00  0.000000E+00                                                                                                                                                                                                                                                                                                                                                                                                                                                                                              
  3.750000E+02  1.250000E+02 -5.425000E+03 -7.527789E+07 -1.142222E+08 -1.258705E+08  2.588456E+00  1.089730E+04  2.458410E+01  1.302801E-05  1.622112E-07 -3.320416E-05  6.024148E-10  2.536142E-06  4.261244E-09 -2.001394E-05  0.000000E+00  0.000000E+00  0.000000E+00  0.000000E+00  0.000000E+00  0.000000E+00  0.000000E+00                                                                                                                                                                                                                                                                                                                                                                                                                                                                                              
  6.250000E+02  1.250000E+02 -5.425000E+03 -7.532889E+07 -1.139250E+08 -1.254054E+08  5.291526E+00  2.000515E+04  2.951523E+01 -4.896638E-06  1.689934E-07 -2.220085E-05  1.231504E-09  4.655826E-06  5.115972E-09 -2.692850E-05  0.000000E+00  0.000000E+00  0.000000E+00  0.000000E+00  0.000000E+00  0.000000E+00  0.000000E+00                                                                                                                                                                                                                                                                                                                                                                                                                                                                                              
  8.750000E+02  1.250000E+02 -5.425000E+03 -7.539158E+07 -1.136246E+08 -1.249218E+08  8.339040E+00  1.576261E+04  1.820574E+01 -2.404704E-05  1.749681E-07 -9.897777E-06  1.940756E-09  3.668453E-06  3.155661E-09 -3.376984E-05  0.000000E+00  0.000000E+00  0.000000E+00  0.000000E+00  0.000000E+00  0.000000E+00  0.000000E+00                                                                                                                                                                                                                                                                                                                                                                                                                                                                                              
  1.050000E+03  1.250000E+02 -5.425000E+03 -7.541873E+07 -1.134930E+08 -1.247110E+08  9.645675E+00 -6.415019E+00  4.539996E-01 -3.251989E-05  1.772457E-07 -4.556762E-06  2.244851E-09 -1.492976E-09  7.869326E-11 -3.689941E-05  0.000000E+00  0.000000E+00  0.000000E+00  0.000000E+00  0.000000E+00  0.000000E+00  0.000000E+00                                                                                                                                                                                                                                                                                                                                                                                                                                                                                              
  1.225000E+03  1.250000E+02 -5.425000E+03 -7.539155E+07 -1.136246E+08 -1.249219E+08  8.359991E+00 -1.577493E+04 -1.732334E+01 -2.404329E-05  1.750783E-07 -9.904346E-06  1.945632E-09 -3.671322E-06 -3.002712E-09 -3.377256E-05  0.000000E+00  0.000000E+00  0.000000E+00  0.000000E+00  0.000000E+00  0.000000E+00  0.000000E+00                                                                                                                                                                                                                                                                                                                                                                                                                                                                                              
  1.475000E+03  1.250000E+02 -5.425000E+03 -7.532882E+07 -1.139250E+08 -1.254056E+08  5.339347E+00 -2.001529E+04 -2.878241E+01 -4.888074E-06  1.692472E-07 -2.221588E-05  1.242633E-09 -4.658185E-06 -4.988950E-09 -2.693471E-05  0.000000E+00  0.000000E+00  0.000000E+00  0.000000E+00  0.000000E+00  0.000000E+00  0.000000E+00                                                                                                                                                                                                                                                                                                                                                                                                                                                                                              
  1.725000E+03  1.250000E+02 -5.425000E+03 -7.527780E+07 -1.142222E+08 -1.258708E+08  2.657753E+00 -1.090389E+04 -2.410056E+01  1.304016E-05  1.625729E-07 -3.322551E-05  6.185423E-10 -2.537676E-06 -4.177431E-09 -2.002278E-05  0.000000E+00  0.000000E+00  0.000000E+00  0.000000E+00  0.000000E+00  0.000000E+00  0.000000E+00                                                                                                                                                                                                                                                                                                                                                                                                                                                                                              
  1.975000E+03  1.250000E+02 -5.425000E+03 -7.525580E+07 -1.143896E+08 -1.261215E+08  1.396533E+00 -2.876806E+03 -7.775049E+00  2.241445E-05  1.585465E-07 -3.841070E-05  3.250169E-10 -6.695229E-07 -1.347675E-09 -1.583771E-05  0.000000E+00  0.000000E+00  0.000000E+00  0.000000E+00  0.000000E+00  0.000000E+00  0.000000E+00                                                                                                                                                                                                                                                                                                                                                                                                                                                                                              
  1.250000E+02  1.250000E+02 -5.225000E+03 -7.288722E+07 -1.108111E+08 -1.221657E+08  7.487783E+00  9.265350E+03  9.137037E+00  2.231945E-05  1.513783E-07 -3.613294E-05  1.742642E-09  2.156337E-06  1.583753E-09 -1.366211E-05  0.000000E+00  0.000000E+00  0.000000E+00  0.000000E+00  0.000000E+00  0.000000E+00  0.000000E+00                                                                                                                                                                                                                                                                                                                                                                                                                                                                                              
  3.750000E+02  1.250000E+02 -5.225000E+03 -7.290167E+07 -1.106416E+08 -1.219241E+08  1.148915E+01  3.669676E+04  2.795076E+01  1.367718E-05  1.559925E-07 -3.200307E-05  2.673885E-09  8.540485E-06  4.844799E-09 -1.816990E-05  0.000000E+00  0.000000E+00  0.000000E+00  0.000000E+00  0.000000E+00  0.000000E+00  0.000000E+00                                                                                                                                                                                                                                                                                                                                                                                                                                                                                              
  6.250000E+02  1.250000E+02 -5.225000E+03 -7.294693E+07 -1.103242E+08 -1.214510E+08  1.979093E+01  6.968118E+04  3.471543E+01 -4.188610E-06  1.637953E-07 -2.242739E-05  4.605969E-09  1.621699E-05  6.017342E-09 -2.645221E-05  0.000000E+00  0.000000E+00  0.000000E+00  0.000000E+00  0.000000E+00  0.000000E+00  0.000000E+00                                                                                                                                                                                                                                                                                                                                                                                                                                                                                              
  8.750000E+02  1.250000E+02 -5.225000E+03 -7.300963E+07 -1.099799E+08 -1.209202E+08  2.907393E+01  5.791778E+04  2.185816E+01 -2.487452E-05  1.708444E-07 -1.049891E-05  6.766414E-09  1.347928E-05  3.788748E-09 -3.520258E-05  0.000000E+00  0.000000E+00  0.000000E+00  0.000000E+00  0.000000E+00  0.000000E+00  0.000000E+00                                                                                                                                                                                                                                                                                                                                                                                                                                                                                              
  1.050000E+03  1.250000E+02 -5.225000E+03 -7.304279E+07 -1.098237E+08 -1.206774E+08  3.312278E+01 -2.335628E+01  4.556391E-01 -3.476403E-05  1.735715E-07 -4.878082E-06  7.708708E-09 -5.435738E-09  7.897744E-11 -3.946854E-05  0.000000E+00  0.000000E+00  0.000000E+00  0.000000E+00  0.000000E+00  0.000000E+00  0.000000E+00                                                                                                                                                                                                                                                                                                                                                                                                                                                                                              
  1.225000E+03  1.250000E+02 -5.225000E+03 -7.300960E+07 -1.099799E+08 -1.209203E+08  2.915032E+01 -5.796265E+04 -2.097103E+01 -2.487076E-05  1.709555E-07 -1.050565E-05  6.784193E-09 -1.348972E-05 -3.634979E-09 -3.520546E-05  0.000000E+00  0.000000E+00  0.000000E+00  0.000000E+00  0.000000E+00  0.000000E+00  0.000000E+00                                                                                                                                                                                                                                                                                                                                                                                                                                                                                              
  1.475000E+03  1.250000E+02 -5.225000E+03 -7.294687E+07 -1.103243E+08 -1.214512E+08  1.996818E+01 -6.971804E+04 -3.397812E+01 -4.180015E-06  1.640513E-07 -2.244281E-05  4.647220E-09 -1.622557E-05 -5.889541E-09 -2.645878E-05  0.000000E+00  0.000000E+00  0.000000E+00  0.000000E+00  0.000000E+00  0.000000E+00  0.000000E+00                                                                                                                                                                                                                                                                                                                                                                                                                                                                                              
  1.725000E+03  1.250000E+02 -5.225000E+03 -7.290158E+07 -1.106417E+08 -1.219244E+08  1.174328E+01 -3.672067E+04 -2.746377E+01  1.368936E-05  1.563574E-07 -3.202494E-05  2.733030E-09 -8.546050E-06 -4.760387E-09 -1.817923E-05  0.000000E+00  0.000000E+00  0.000000E+00  0.000000E+00  0.000000E+00  0.000000E+00  0.000000E+00                                                                                                                                                                                                                                                                                                                                                                                                                                                                                              
  1.975000E+03  1.250000E+02 -5.225000E+03 -7.288712E+07 -1.108112E+08 -1.221661E+08  7.782775E+00 -9.273593E+03 -8.966381E+00  2.233353E-05  1.518015E-07 -3.615823E-05  1.811296E-09 -2.158256E-06 -1.554173E-09 -1.367290E-05  0.000000E+00  0.000000E+00  0.000000E+00  0.000000E+00  0.000000E+00  0.000000E+00  0.000000E+00                                                                                                                                                                                                                                                                                                                                                                                                                                                                                              
  1.250000E+02  1.250000E+02 -4.975000E+03 -6.994345E+07 -1.063387E+08 -1.172248E+08  1.172709E+01  1.162620E+04  1.168754E+01  2.139035E-05  1.357844E-07 -3.374586E-05  2.729262E-09  2.705782E-06  2.025841E-09 -1.221972E-05  0.000000E+00  0.000000E+00  0.000000E+00  0.000000E+00  0.000000E+00  0.000000E+00  0.000000E+00                                                                                                                                                                                                                                                                                                                                                                                                                                                                                              
  3.750000E+02  1.250000E+02 -4.975000E+03 -6.993965E+07 -1.061743E+08 -1.170117E+08  1.853462E+01  5.079892E+04  3.532779E+01  1.474451E-05  1.414806E-07 -3.162678E-05  4.313588E-09  1.182250E-05  6.123484E-09 -1.674079E-05  0.000000E+00  0.000000E+00  0.000000E+00  0.000000E+00  0.000000E+00  0.000000E+00  0.000000E+00                                                                                                                                                                                                                                                                                                                                                                                                                                                                                              
  6.250000E+02  1.250000E+02 -4.975000E+03 -6.994680E+07 -1.058275E+08 -1.165275E+08  3.294225E+01  1.230454E+05  4.593885E+01 -1.247146E-06  1.513837E-07 -2.397231E-05  7.666694E-09  2.863652E-05  7.962734E-09 -2.506807E-05  0.000000E+00  0.000000E+00  0.000000E+00  0.000000E+00  0.000000E+00  0.000000E+00  0.000000E+00                                                                                                                                                                                                                                                                                                                                                                                                                                                                                              
  8.750000E+02  1.250000E+02 -4.975000E+03 -7.002683E+07 -1.054100E+08 -1.158737E+08  4.967978E+01  1.283683E+05  3.013318E+01 -2.673866E-05  1.607075E-07 -8.590211E-06  1.156204E-08  2.987532E-05  5.223085E-09 -3.516816E-05  0.000000E+00  0.000000E+00  0.000000E+00  0.000000E+00  0.000000E+00  0.000000E+00  0.000000E+00                                                                                                                                                                                                                                                                                                                                                                                                                                                                                              
  1.050000E+03  1.250000E+02 -4.975000E+03 -7.007573E+07 -1.051987E+08 -1.155260E+08  5.726804E+01 -4.388282E+01  4.528604E-01 -4.084122E-05  1.644189E-07  7.818775E-07  1.332807E-08 -1.021291E-08  7.849581E-11 -3.989492E-05  0.000000E+00  0.000000E+00  0.000000E+00  0.000000E+00  0.000000E+00  0.000000E+00  0.000000E+00                                                                                                                                                                                                                                                                                                                                                                                                                                                                                              
  1.225000E+03  1.250000E+02 -4.975000E+03 -7.002680E+07 -1.054101E+08 -1.158738E+08  4.981941E+01 -1.284524E+05 -2.924503E+01 -2.673489E-05  1.608199E-07 -8.597420E-06  1.159454E-08 -2.989490E-05 -5.069138E-09 -3.517149E-05  0.000000E+00  0.000000E+00  0.000000E+00  0.000000E+00  0.000000E+00  0.000000E+00  0.000000E+00                                                                                                                                                                                                                                                                                                                                                                                                                                                                                              
  1.475000E+03  1.250000E+02 -4.975000E+03 -6.994675E+07 -1.058275E+08 -1.165278E+08  3.326483E+01 -1.231142E+05 -4.520126E+01 -1.238573E-06  1.516425E-07 -2.398874E-05  7.741769E-09 -2.865254E-05 -7.834884E-09 -2.507567E-05  0.000000E+00  0.000000E+00  0.000000E+00  0.000000E+00  0.000000E+00  0.000000E+00  0.000000E+00                                                                                                                                                                                                                                                                                                                                                                                                                                                                                              
  1.725000E+03  1.250000E+02 -4.975000E+03 -6.993956E+07 -1.061744E+08 -1.170120E+08  1.899263E+01 -5.084332E+04 -3.484572E+01  1.475661E-05  1.418481E-07 -3.165000E-05  4.420181E-09 -1.183283E-05 -6.039925E-09 -1.675154E-05  0.000000E+00  0.000000E+00  0.000000E+00  0.000000E+00  0.000000E+00  0.000000E+00  0.000000E+00                                                                                                                                                                                                                                                                                                                                                                                                                                                                                              
  1.975000E+03  1.250000E+02 -4.975000E+03 -6.994335E+07 -1.063387E+08 -1.172252E+08  1.225508E+01 -1.164144E+04 -1.152060E+01  2.140429E-05  1.362093E-07 -3.377263E-05  2.852140E-09 -2.709328E-06 -1.996903E-09 -1.223213E-05  0.000000E+00  0.000000E+00  0.000000E+00  0.000000E+00  0.000000E+00  0.000000E+00  0.000000E+00                                                                                                                                                                                                                                                                                                                                                                                                                                                                                              
  1.250000E+02  1.250000E+02 -4.725000E+03 -6.702468E+07 -1.018532E+08 -1.122695E+08 -3.641568E-01  4.650298E+03  1.460692E+01  1.746536E-05  1.107344E-07 -3.134285E-05 -8.475071E-11  1.082270E-06  2.531866E-09 -1.376676E-05  0.000000E+00  0.000000E+00  0.000000E+00  0.000000E+00  0.000000E+00  0.000000E+00  0.000000E+00                                                                                                                                                                                                                                                                                                                                                                                                                                                                                              
  3.750000E+02  1.250000E+02 -4.725000E+03 -6.700152E+07 -1.016971E+08 -1.120905E+08  7.755560E+00  2.634076E+04  4.455259E+01  1.300322E-05  1.175935E-07 -3.139880E-05  1.804962E-09  6.130319E-06  7.722448E-09 -1.827799E-05  0.000000E+00  0.000000E+00  0.000000E+00  0.000000E+00  0.000000E+00  0.000000E+00  0.000000E+00                                                                                                                                                                                                                                                                                                                                                                                                                                                                                              
  6.250000E+02  1.250000E+02 -4.725000E+03 -6.693547E+07 -1.013476E+08 -1.116813E+08  2.661632E+01  1.103407E+05  6.119140E+01  3.432397E-06  1.298267E-07 -3.055949E-05  6.194453E-09  2.567973E-05  1.060651E-08 -2.699727E-05  0.000000E+00  0.000000E+00  0.000000E+00  0.000000E+00  0.000000E+00  0.000000E+00  0.000000E+00                                                                                                                                                                                                                                                                                                                                                                                                                                                                                              
  8.750000E+02  1.250000E+02 -4.725000E+03 -6.690409E+07 -1.007466E+08 -1.107721E+08  5.068834E+01  2.298857E+05  4.272838E+01 -2.422177E-05  1.418672E-07 -1.014431E-05  1.179677E-08  5.350161E-05  7.406252E-09 -3.422421E-05  0.000000E+00  0.000000E+00  0.000000E+00  0.000000E+00  0.000000E+00  0.000000E+00  0.000000E+00                                                                                                                                                                                                                                                                                                                                                                                                                                                                                              
  1.050000E+03  1.250000E+02 -4.725000E+03 -6.699193E+07 -1.004150E+08 -1.101762E+08  6.235955E+01 -6.183350E+01  4.582582E-01 -4.848703E-05  1.468439E-07  9.260580E-06  1.451302E-08 -1.439059E-08  7.943143E-11 -3.907960E-05  0.000000E+00  0.000000E+00  0.000000E+00  0.000000E+00  0.000000E+00  0.000000E+00  0.000000E+00                                                                                                                                                                                                                                                                                                                                                                                                                                                                                              
  1.225000E+03  1.250000E+02 -4.725000E+03 -6.690407E+07 -1.007466E+08 -1.107722E+08  5.089861E+01 -2.300045E+05 -4.186768E+01 -2.421818E-05  1.419829E-07 -1.015220E-05  1.184570E-08 -5.352926E-05 -7.257064E-09 -3.422840E-05  0.000000E+00  0.000000E+00  0.000000E+00  0.000000E+00  0.000000E+00  0.000000E+00  0.000000E+00                                                                                                                                                                                                                                                                                                                                                                                                                                                                                              
  1.475000E+03  1.250000E+02 -4.725000E+03 -6.693543E+07 -1.013477E+08 -1.116816E+08  2.705873E+01 -1.104373E+05 -6.051194E+01  3.440590E-06  1.300832E-07 -3.057742E-05  6.297415E-09 -2.570222E-05 -1.048874E-08 -2.700675E-05  0.000000E+00  0.000000E+00  0.000000E+00  0.000000E+00  0.000000E+00  0.000000E+00  0.000000E+00                                                                                                                                                                                                                                                                                                                                                                                                                                                                                              
  1.725000E+03  1.250000E+02 -4.725000E+03 -6.700145E+07 -1.016971E+08 -1.120908E+08  8.360184E+00 -2.640233E+04 -4.410767E+01  1.301469E-05  1.179488E-07 -3.142399E-05  1.945677E-09 -6.144649E-06 -7.645330E-09 -1.829134E-05  0.000000E+00  0.000000E+00  0.000000E+00  0.000000E+00  0.000000E+00  0.000000E+00  0.000000E+00                                                                                                                                                                                                                                                                                                                                                                                                                                                                                              