Title="TREACTMECH V1.0-OMP-MPI stress-strain.tec: Total Stresses (Pa), Strains"                                                                                                                                                                                                                                                                                                                                                                                                                                                                                                                                                                                                                                                                                                                                                 
Variables= "X(m)"     "Y(m)"      "Z(m)"    "Sigma_xx"    "Sigma_yy"    "Sigma_zz"    "Sigma_yz"    "Sigma_xz"    "Sigma_xy"   "Strain_xx"   "Strain_yy"   "Strain_zz"   "Strain_yz"   "Strain_xz"   "Strain_xy"  "Vol_Strain"   "E_fail_xx"   "E_fail_yy"   "E_fail_zz"  "E_fail_yz2"  "E_fail_xz2"  "E_fail_xy2"  "E_fail_vol"                                                                                                                                                                                                                                                                                                                                                                                                                                                                                                
Zone T= "5.00000000E-02 sec" I=     9 J=    10 K=    23 F=Point
  1.250000E+02  1.250000E+02 -5.425000E+03 -7.513122E+07 -1.143154E+08 -1.261741E+08 -8.217077E-01  3.242307E+03  5.627337E+00  2.677943E-05  1.613418E-07 -4.940101E-05 -1.912371E-10  7.545864E-07  9.754051E-10 -2.246024E-05  0.000000E+00  0.000000E+00  0.000000E+00  0.000000E+00  0.000000E+00  0.000000E+00  0.000000E+00                                                                                                                                                                                                                                                                                                                                                                                                                                                                                              
  3.750000E+02  1.250000E+02 -5.425000E+03 -7.515579E+07 -1.141275E+08 -1.258989E+08  1.111366E-01  1.222107E+04  1.894192E+01  1.540826E-05  1.647137E-07 -4.386903E-05  2.586496E-11  2.844227E-06  3.283267E-09 -2.829606E-05  0.000000E+00  0.000000E+00  0.000000E+00  0.000000E+00  0.000000E+00  0.000000E+00  0.000000E+00                                                                                                                                                                                                                                                                                                                                                                                                                                                                                              
  6.250000E+02  1.250000E+02 -5.425000E+03 -7.521276E+07 -1.137965E+08 -1.253922E+08  2.283485E+00  2.208490E+04  2.367969E+01 -5.963647E-06  1.704610E-07 -3.219549E-05  5.314385E-10  5.139849E-06  4.104479E-09 -3.798868E-05  0.000000E+00  0.000000E+00  0.000000E+00  0.000000E+00  0.000000E+00  0.000000E+00  0.000000E+00                                                                                                                                                                                                                                                                                                                                                                                                                                                                                              
  8.750000E+02  1.250000E+02 -5.425000E+03 -7.528203E+07 -1.134628E+08 -1.248678E+08  4.870824E+00  1.717063E+04  1.485932E+01 -2.856870E-05  1.756066E-07 -1.922891E-05  1.133593E-09  3.996143E-06  2.575615E-09 -4.762200E-05  0.000000E+00  0.000000E+00  0.000000E+00  0.000000E+00  0.000000E+00  0.000000E+00  0.000000E+00                                                                                                                                                                                                                                                                                                                                                                                                                                                                                              
  1.050000E+03  1.250000E+02 -5.425000E+03 -7.531172E+07 -1.133196E+08 -1.246422E+08  5.991018E+00 -1.359448E-02  3.943925E-02 -3.827712E-05  1.775700E-07 -1.362462E-05  1.394298E-09 -3.163861E-12  6.836136E-12 -5.172417E-05  0.000000E+00  0.000000E+00  0.000000E+00  0.000000E+00  0.000000E+00  0.000000E+00  0.000000E+00                                                                                                                                                                                                                                                                                                                                                                                                                                                                                              
  1.225000E+03  1.250000E+02 -5.425000E+03 -7.528203E+07 -1.134628E+08 -1.248678E+08  4.830683E+00 -1.717063E+04 -1.479913E+01 -2.856865E-05  1.756149E-07 -1.922888E-05  1.124251E-09 -3.996143E-06 -2.565182E-09 -4.762191E-05  0.000000E+00  0.000000E+00  0.000000E+00  0.000000E+00  0.000000E+00  0.000000E+00  0.000000E+00                                                                                                                                                                                                                                                                                                                                                                                                                                                                                              
  1.475000E+03  1.250000E+02 -5.425000E+03 -7.521276E+07 -1.137965E+08 -1.253922E+08  2.217400E+00 -2.208487E+04 -2.364642E+01 -5.963607E-06  1.704689E-07 -3.219544E-05  5.160584E-10 -5.139841E-06 -4.098713E-09 -3.798858E-05  0.000000E+00  0.000000E+00  0.000000E+00  0.000000E+00  0.000000E+00  0.000000E+00  0.000000E+00                                                                                                                                                                                                                                                                                                                                                                                                                                                                                              
  1.725000E+03  1.250000E+02 -5.425000E+03 -7.515579E+07 -1.141275E+08 -1.258989E+08  5.393127E-02 -1.222102E+04 -1.891369E+01  1.540830E-05  1.647131E-07 -4.386899E-05  1.255150E-11 -2.844215E-06 -3.278372E-09 -2.829599E-05  0.000000E+00  0.000000E+00  0.000000E+00  0.000000E+00  0.000000E+00  0.000000E+00  0.000000E+00                                                                                                                                                                                                                                                                                                                                                                                                                                                                                              
  1.975000E+03  1.250000E+02 -5.425000E+03 -7.513122E+07 -1.143154E+08 -1.261741E+08 -8.693327E-01 -3.242273E+03 -5.603557E+00  2.677946E-05  1.613373E-07 -4.940098E-05 -2.023210E-10 -7.545785E-07 -9.712832E-10 -2.246019E-05  0.000000E+00  0.000000E+00  0.000000E+00  0.000000E+00  0.000000E+00  0.000000E+00  0.000000E+00                                                                                                                                                                                                                                                                                                                                                                                                                                                                                              
  1.250000E+02  1.250000E+02 -5.225000E+03 -7.276835E+07 -1.107435E+08 -1.222200E+08 -1.176050E+00  1.001144E+04  6.504169E+00  2.676490E-05  1.533239E-07 -4.668948E-05 -2.737037E-10  2.329976E-06  1.127389E-09 -1.977126E-05  0.000000E+00  0.000000E+00  0.000000E+00  0.000000E+00  0.000000E+00  0.000000E+00  0.000000E+00                                                                                                                                                                                                                                                                                                                                                                                                                                                                                              
  3.750000E+02  1.250000E+02 -5.225000E+03 -7.278254E+07 -1.105513E+08 -1.219546E+08  1.789940E+00  3.906893E+04  2.151793E+01  1.617792E-05  1.571327E-07 -4.246360E-05  4.165752E-10  9.092564E-06  3.729775E-09 -2.612855E-05  0.000000E+00  0.000000E+00  0.000000E+00  0.000000E+00  0.000000E+00  0.000000E+00  0.000000E+00                                                                                                                                                                                                                                                                                                                                                                                                                                                                                              
  6.250000E+02  1.250000E+02 -5.225000E+03 -7.282680E+07 -1.101927E+08 -1.214385E+08  8.333565E+00  7.343149E+04  2.794587E+01 -5.174477E-06  1.637523E-07 -3.274154E-05  1.939482E-09  1.708981E-05  4.843951E-09 -3.775226E-05  0.000000E+00  0.000000E+00  0.000000E+00  0.000000E+00  0.000000E+00  0.000000E+00  0.000000E+00                                                                                                                                                                                                                                                                                                                                                                                                                                                                                              
  8.750000E+02  1.250000E+02 -5.225000E+03 -7.288962E+07 -1.098054E+08 -1.208632E+08  1.593003E+01  6.053175E+04  1.794776E+01 -2.959168E-05  1.698378E-07 -2.067542E-05  3.707417E-09  1.408764E-05  3.110946E-09 -5.009727E-05  0.000000E+00  0.000000E+00  0.000000E+00  0.000000E+00  0.000000E+00  0.000000E+00  0.000000E+00                                                                                                                                                                                                                                                                                                                                                                                                                                                                                              
  1.050000E+03  1.250000E+02 -5.225000E+03 -7.292298E+07 -1.096333E+08 -1.206037E+08  1.927218E+01  1.816397E-01  4.786008E-02 -4.088368E-05  1.721972E-07 -1.499840E-05  4.485239E-09  4.227325E-11  8.295747E-12 -5.570988E-05  0.000000E+00  0.000000E+00  0.000000E+00  0.000000E+00  0.000000E+00  0.000000E+00  0.000000E+00                                                                                                                                                                                                                                                                                                                                                                                                                                                                                              
  1.225000E+03  1.250000E+02 -5.225000E+03 -7.288962E+07 -1.098054E+08 -1.208632E+08  1.586936E+01 -6.053153E+04 -1.787696E+01 -2.959163E-05  1.698428E-07 -2.067542E-05  3.693297E-09 -1.408758E-05 -3.098673E-09 -5.009721E-05  0.000000E+00  0.000000E+00  0.000000E+00  0.000000E+00  0.000000E+00  0.000000E+00  0.000000E+00                                                                                                                                                                                                                                                                                                                                                                                                                                                                                              
  1.475000E+03  1.250000E+02 -5.225000E+03 -7.282680E+07 -1.101927E+08 -1.214385E+08  8.243328E+00 -7.343144E+04 -2.791619E+01 -5.174437E-06  1.637554E-07 -3.274154E-05  1.918481E-09 -1.708980E-05 -4.838806E-09 -3.775222E-05  0.000000E+00  0.000000E+00  0.000000E+00  0.000000E+00  0.000000E+00  0.000000E+00  0.000000E+00                                                                                                                                                                                                                                                                                                                                                                                                                                                                                              
  1.725000E+03  1.250000E+02 -5.225000E+03 -7.278253E+07 -1.105513E+08 -1.219546E+08  1.716945E+00 -3.906894E+04 -2.149972E+01  1.617796E-05  1.571290E-07 -4.246360E-05  3.995868E-10 -9.092566E-06 -3.726618E-09 -2.612851E-05  0.000000E+00  0.000000E+00  0.000000E+00  0.000000E+00  0.000000E+00  0.000000E+00  0.000000E+00                                                                                                                                                                                                                                                                                                                                                                                                                                                                                              
  1.975000E+03  1.250000E+02 -5.225000E+03 -7.276835E+07 -1.107435E+08 -1.222200E+08 -1.234228E+00 -1.001144E+04 -6.493264E+00  2.676492E-05  1.533170E-07 -4.668947E-05 -2.872436E-10 -2.329976E-06 -1.125499E-09 -1.977124E-05  0.000000E+00  0.000000E+00  0.000000E+00  0.000000E+00  0.000000E+00  0.000000E+00  0.000000E+00                                                                                                                                                                                                                                                                                                                                                                                                                                                                                              
  1.250000E+02  1.250000E+02 -4.975000E+03 -6.982972E+07 -1.062744E+08 -1.172800E+08 -4.776598E+00  1.126752E+04  8.504489E+00  2.567618E-05  1.344431E-07 -4.409947E-05 -1.111664E-09  2.622305E-06  1.474111E-09 -1.828885E-05  0.000000E+00  0.000000E+00  0.000000E+00  0.000000E+00  0.000000E+00  0.000000E+00  0.000000E+00                                                                                                                                                                                                                                                                                                                                                                                                                                                                                              
  3.750000E+02  1.250000E+02 -4.975000E+03 -6.982141E+07 -1.060845E+08 -1.170431E+08  2.630729E-01  5.000585E+04  2.736449E+01  1.720836E-05  1.391547E-07 -4.213534E-05  6.122531E-11  1.163793E-05  4.743178E-09 -2.478783E-05  0.000000E+00  0.000000E+00  0.000000E+00  0.000000E+00  0.000000E+00  0.000000E+00  0.000000E+00                                                                                                                                                                                                                                                                                                                                                                                                                                                                                              
  6.250000E+02  1.250000E+02 -4.975000E+03 -6.982038E+07 -1.056913E+08 -1.165166E+08  1.119742E+01  1.223376E+05  3.710181E+01 -2.101846E-06  1.475454E-07 -3.483497E-05  2.605992E-09  2.847180E-05  6.430981E-09 -3.678927E-05  0.000000E+00  0.000000E+00  0.000000E+00  0.000000E+00  0.000000E+00  0.000000E+00  0.000000E+00                                                                                                                                                                                                                                                                                                                                                                                                                                                                                              
  8.750000E+02  1.250000E+02 -4.975000E+03 -6.988996E+07 -1.052192E+08 -1.158138E+08  2.421448E+01  1.277150E+05  2.477894E+01 -3.141717E-05  1.555627E-07 -1.993985E-05  5.635468E-09  2.972327E-05  4.295016E-09 -5.120146E-05  0.000000E+00  0.000000E+00  0.000000E+00  0.000000E+00  0.000000E+00  0.000000E+00  0.000000E+00                                                                                                                                                                                                                                                                                                                                                                                                                                                                                              
  1.050000E+03  1.250000E+02 -4.975000E+03 -6.993351E+07 -1.049875E+08 -1.154484E+08  3.017377E+01  2.077921E-01  4.149312E-02 -4.682785E-05  1.587583E-07 -1.081348E-05  7.022383E-09  4.835973E-11  7.192141E-12 -5.748256E-05  0.000000E+00  0.000000E+00  0.000000E+00  0.000000E+00  0.000000E+00  0.000000E+00  0.000000E+00                                                                                                                                                                                                                                                                                                                                                                                                                                                                                              
  1.225000E+03  1.250000E+02 -4.975000E+03 -6.988996E+07 -1.052192E+08 -1.158138E+08  2.416374E+01 -1.277147E+05 -2.471924E+01 -3.141714E-05  1.555651E-07 -1.993986E-05  5.623660E-09 -2.972321E-05 -4.284668E-09 -5.120143E-05  0.000000E+00  0.000000E+00  0.000000E+00  0.000000E+00  0.000000E+00  0.000000E+00  0.000000E+00                                                                                                                                                                                                                                                                                                                                                                                                                                                                                              
  1.475000E+03  1.250000E+02 -4.975000E+03 -6.982038E+07 -1.056913E+08 -1.165166E+08  1.112379E+01 -1.223375E+05 -3.708325E+01 -2.101817E-06  1.475462E-07 -3.483498E-05  2.588855E-09 -2.847178E-05 -6.427763E-09 -3.678925E-05  0.000000E+00  0.000000E+00  0.000000E+00  0.000000E+00  0.000000E+00  0.000000E+00  0.000000E+00                                                                                                                                                                                                                                                                                                                                                                                                                                                                                              
  1.725000E+03  1.250000E+02 -4.975000E+03 -6.982141E+07 -1.060845E+08 -1.170431E+08  2.039154E-01 -5.000584E+04 -2.736122E+01  1.720838E-05  1.391511E-07 -4.213535E-05  4.745750E-11 -1.163792E-05 -4.742612E-09 -2.478782E-05  0.000000E+00  0.000000E+00  0.000000E+00  0.000000E+00  0.000000E+00  0.000000E+00  0.000000E+00                                                                                                                                                                                                                                                                                                                                                                                                                                                                                              
  1.975000E+03  1.250000E+02 -4.975000E+03 -6.982972E+07 -1.062744E+08 -1.172800E+08 -4.821898E+00 -1.126752E+04 -8.505445E+00  2.567620E-05  1.344368E-07 -4.409948E-05 -1.122207E-09 -2.622306E-06 -1.474277E-09 -1.828884E-05  0.000000E+00  0.000000E+00  0.000000E+00  0.000000E+00  0.000000E+00  0.000000E+00  0.000000E+00                                                                                                                                                                                                                                                                                                                                                                                                                                                                                              
  1.250000E+02  1.250000E+02 -4.725000E+03 -6.694541E+07 -1.018111E+08 -1.123210E+08 -1.468293E+01  7.946175E+02  1.086146E+01  2.068186E-05  1.052522E-07 -3.946018E-05 -3.417178E-09  1.849324E-07  1.882654E-09 -1.867307E-05  0.000000E+00  0.000000E+00  0.000000E+00  0.000000E+00  0.000000E+00  0.000000E+00  0.000000E+00                                                                                                                                                                                                                                                                                                                                                                                                                                                                                              
  3.750000E+02  1.250000E+02 -4.725000E+03 -6.691253E+07 -1.016277E+08 -1.121192E+08 -9.060608E+00  1.583702E+04  3.435475E+01  1.469810E-05  1.108575E-07 -3.990865E-05 -2.108687E-09  3.685770E-06  5.954824E-09 -2.509970E-05  0.000000E+00  0.000000E+00  0.000000E+00  0.000000E+00  0.000000E+00  0.000000E+00  0.000000E+00                                                                                                                                                                                                                                                                                                                                                                                                                                                                                              
  6.250000E+02  1.250000E+02 -4.725000E+03 -6.682881E+07 -1.012274E+08 -1.116681E+08  3.292458E+00  9.417321E+04  4.821409E+01  2.246102E-06  1.209470E-07 -3.984184E-05  7.662581E-10  2.191706E-05  8.357109E-09 -3.747479E-05  0.000000E+00  0.000000E+00  0.000000E+00  0.000000E+00  0.000000E+00  0.000000E+00  0.000000E+00                                                                                                                                                                                                                                                                                                                                                                                                                                                                                              
  8.750000E+02  1.250000E+02 -4.725000E+03 -6.676576E+07 -1.005761E+08 -1.107186E+08  1.917595E+01  2.188372E+05  3.405526E+01 -2.702108E-05  1.309287E-07 -2.029067E-05  4.462844E-09  5.093026E-05  5.902911E-09 -4.718083E-05  0.000000E+00  0.000000E+00  0.000000E+00  0.000000E+00  0.000000E+00  0.000000E+00  0.000000E+00                                                                                                                                                                                                                                                                                                                                                                                                                                                                                              
  1.050000E+03  1.250000E+02 -4.725000E+03 -6.685629E+07 -1.002271E+08 -1.101096E+08  2.711506E+01  1.551295E-01  2.027396E-02 -5.302501E-05  1.350561E-07 -1.257440E-06  6.310524E-09  3.610350E-11  3.514153E-12 -5.414739E-05  0.000000E+00  0.000000E+00  0.000000E+00  0.000000E+00  0.000000E+00  0.000000E+00  0.000000E+00                                                                                                                                                                                                                                                                                                                                                                                                                                                                                              
  1.225000E+03  1.250000E+02 -4.725000E+03 -6.676576E+07 -1.005761E+08 -1.107186E+08  1.914910E+01 -2.188370E+05 -3.402755E+01 -2.702106E-05  1.309295E-07 -2.029068E-05  4.456595E-09 -5.093022E-05 -5.898109E-09 -4.718082E-05  0.000000E+00  0.000000E+00  0.000000E+00  0.000000E+00  0.000000E+00  0.000000E+00  0.000000E+00                                                                                                                                                                                                                                                                                                                                                                                                                                                                                              
  1.475000E+03  1.250000E+02 -4.725000E+03 -6.682881E+07 -1.012274E+08 -1.116681E+08  3.255770E+00 -9.417311E+04 -4.820876E+01  2.246116E-06  1.209469E-07 -3.984185E-05  7.577197E-10 -2.191703E-05 -8.356185E-09 -3.747479E-05  0.000000E+00  0.000000E+00  0.000000E+00  0.000000E+00  0.000000E+00  0.000000E+00  0.000000E+00                                                                                                                                                                                                                                                                                                                                                                                                                                                                                              
  1.725000E+03  1.250000E+02 -4.725000E+03 -6.691253E+07 -1.016277E+08 -1.121192E+08 -9.087191E+00 -1.583698E+04 -3.435707E+01  1.469811E-05  1.108553E-07 -3.990866E-05 -2.114874E-09 -3.685762E-06 -5.955226E-09 -2.509970E-05  0.000000E+00  0.000000E+00  0.000000E+00  0.000000E+00  0.000000E+00  0.000000E+00  0.000000E+00                                                                                                                                                                                                                                                                                                                                                                                                                                                                                              