Title="TREACTMECH V1.0-OMP-MPI stress-strain.tec: Total Stresses (Pa), Strains"                                                                                                                                                                                                                                                                                                                                                                                                                                                                                                                                                                                                                                                                                                                                                 
Variables= "X(m)"     "Y(m)"      "Z(m)"    "Sigma_xx"    "Sigma_yy"    "Sigma_zz"    "Sigma_yz"    "Sigma_xz"    "Sigma_xy"   "Strain_xx"   "Strain_yy"   "Strain_zz"   "Strain_yz"   "Strain_xz"   "Strain_xy"  "Vol_Strain"   "E_fail_xx"   "E_fail_yy"   "E_fail_zz"  "E_fail_yz2"  "E_fail_xz2"  "E_fail_xy2"  "E_fail_vol"                                                                                                                                                                                                                                                                                                                                                                                                                                                                                                
Zone T= "3.15569000E+08 sec" I=     9 J=    10 K=    23 F=Point
  1.250000E+02  1.250000E+02 -5.425000E+03 -7.517939E+07 -1.143639E+08 -1.261747E+08 -5.919683E-01  3.262637E+03  5.736424E+00  2.680786E-05  1.623746E-07 -4.524757E-05 -1.377696E-10  7.593178E-07  9.943134E-10 -1.827733E-05  0.000000E+00  0.000000E+00  0.000000E+00  0.000000E+00  0.000000E+00  0.000000E+00  0.000000E+00                                                                                                                                                                                                                                                                                                                                                                                                                                                                                              
  3.750000E+02  1.250000E+02 -5.425000E+03 -7.520410E+07 -1.141759E+08 -1.258989E+08  3.576094E-01  1.228917E+04  1.921923E+01  1.541252E-05  1.657822E-07 -3.967960E-05  8.322690E-11  2.860074E-06  3.331333E-09 -2.410130E-05  0.000000E+00  0.000000E+00  0.000000E+00  0.000000E+00  0.000000E+00  0.000000E+00  0.000000E+00                                                                                                                                                                                                                                                                                                                                                                                                                                                                                              
  6.250000E+02  1.250000E+02 -5.425000E+03 -7.526137E+07 -1.138446E+08 -1.253912E+08  2.543385E+00  2.220160E+04  2.389934E+01 -6.007203E-06  1.715772E-07 -2.793665E-05  5.919254E-10  5.167008E-06  4.142552E-09 -3.377228E-05  0.000000E+00  0.000000E+00  0.000000E+00  0.000000E+00  0.000000E+00  0.000000E+00  0.000000E+00                                                                                                                                                                                                                                                                                                                                                                                                                                                                                              
  8.750000E+02  1.250000E+02 -5.425000E+03 -7.533098E+07 -1.135107E+08 -1.248657E+08  5.140995E+00  1.723858E+04  1.482867E+01 -2.866301E-05  1.767392E-07 -1.490387E-05  1.196471E-09  4.011958E-06  2.570304E-09 -4.339014E-05  0.000000E+00  0.000000E+00  0.000000E+00  0.000000E+00  0.000000E+00  0.000000E+00  0.000000E+00                                                                                                                                                                                                                                                                                                                                                                                                                                                                                              
  1.050000E+03  1.250000E+02 -5.425000E+03 -7.536072E+07 -1.133673E+08 -1.246398E+08  6.271669E+00 -4.180474E+01 -1.547577E-01 -3.838882E-05  1.786902E-07 -9.281711E-06  1.459614E-09 -9.729272E-09 -2.682467E-11 -4.749184E-05  0.000000E+00  0.000000E+00  0.000000E+00  0.000000E+00  0.000000E+00  0.000000E+00  0.000000E+00                                                                                                                                                                                                                                                                                                                                                                                                                                                                                              
  1.225000E+03  1.250000E+02 -5.425000E+03 -7.533079E+07 -1.135108E+08 -1.248663E+08  5.123830E+00 -1.731888E+04 -1.511909E+01 -2.863820E-05  1.767040E-07 -1.494653E-05  1.192476E-09 -4.030647E-06 -2.620641E-09 -4.340803E-05  0.000000E+00  0.000000E+00  0.000000E+00  0.000000E+00  0.000000E+00  0.000000E+00  0.000000E+00                                                                                                                                                                                                                                                                                                                                                                                                                                                                                              
  1.475000E+03  1.250000E+02 -5.425000E+03 -7.526094E+07 -1.138448E+08 -1.253926E+08  2.505136E+00 -2.226755E+04 -2.415174E+01 -5.950458E-06  1.714949E-07 -2.803425E-05  5.830237E-10 -5.182357E-06 -4.186302E-09 -3.381322E-05  0.000000E+00  0.000000E+00  0.000000E+00  0.000000E+00  0.000000E+00  0.000000E+00  0.000000E+00                                                                                                                                                                                                                                                                                                                                                                                                                                                                                              
  1.725000E+03  1.250000E+02 -5.425000E+03 -7.520348E+07 -1.141762E+08 -1.259008E+08  3.053281E-01 -1.233200E+04 -1.938538E+01  1.549304E-05  1.656625E-07 -3.981817E-05  7.105942E-11 -2.870043E-06 -3.360133E-09 -2.415946E-05  0.000000E+00  0.000000E+00  0.000000E+00  0.000000E+00  0.000000E+00  0.000000E+00  0.000000E+00                                                                                                                                                                                                                                                                                                                                                                                                                                                                                              
  1.975000E+03  1.250000E+02 -5.425000E+03 -7.517868E+07 -1.143642E+08 -1.261769E+08 -6.511287E-01 -3.277416E+03 -5.792379E+00  2.690098E-05  1.622352E-07 -4.540788E-05 -1.515381E-10 -7.627574E-07 -1.004012E-09 -1.834467E-05  0.000000E+00  0.000000E+00  0.000000E+00  0.000000E+00  0.000000E+00  0.000000E+00  0.000000E+00                                                                                                                                                                                                                                                                                                                                                                                                                                                                                              
  1.250000E+02  1.250000E+02 -5.225000E+03 -7.281795E+07 -1.107934E+08 -1.222206E+08 -1.321810E-01  1.005165E+04  6.669406E+00  2.678638E-05  1.544709E-07 -4.242530E-05 -3.076267E-11  2.339333E-06  1.156030E-09 -1.548445E-05  0.000000E+00  0.000000E+00  0.000000E+00  0.000000E+00  0.000000E+00  0.000000E+00  0.000000E+00                                                                                                                                                                                                                                                                                                                                                                                                                                                                                              
  3.750000E+02  1.250000E+02 -5.225000E+03 -7.283212E+07 -1.106010E+08 -1.219547E+08  2.919729E+00  3.926971E+04  2.190083E+01  1.618527E-05  1.583240E-07 -3.816941E-05  6.795124E-10  9.139291E-06  3.796144E-09 -2.182581E-05  0.000000E+00  0.000000E+00  0.000000E+00  0.000000E+00  0.000000E+00  0.000000E+00  0.000000E+00                                                                                                                                                                                                                                                                                                                                                                                                                                                                                              
  6.250000E+02  1.250000E+02 -5.225000E+03 -7.287663E+07 -1.102421E+08 -1.214375E+08  9.521183E+00  7.383528E+04  2.823530E+01 -5.212410E-06  1.649984E-07 -2.837623E-05  2.215878E-09  1.718378E-05  4.894118E-09 -3.342364E-05  0.000000E+00  0.000000E+00  0.000000E+00  0.000000E+00  0.000000E+00  0.000000E+00  0.000000E+00                                                                                                                                                                                                                                                                                                                                                                                                                                                                                              
  8.750000E+02  1.250000E+02 -5.225000E+03 -7.293976E+07 -1.098545E+08 -1.208609E+08  1.709710E+01  6.083237E+04  1.791500E+01 -2.968563E-05  1.711011E-07 -1.622547E-05  3.979031E-09  1.415760E-05  3.105266E-09 -4.574001E-05  0.000000E+00  0.000000E+00  0.000000E+00  0.000000E+00  0.000000E+00  0.000000E+00  0.000000E+00                                                                                                                                                                                                                                                                                                                                                                                                                                                                                              
  1.050000E+03  1.250000E+02 -5.225000E+03 -7.297341E+07 -1.096823E+08 -1.206010E+08  2.041901E+01 -1.523021E+02 -1.686313E-01 -4.100794E-05  1.734472E-07 -1.051700E-05  4.752142E-09 -3.544547E-08 -2.922943E-11 -5.135149E-05  0.000000E+00  0.000000E+00  0.000000E+00  0.000000E+00  0.000000E+00  0.000000E+00  0.000000E+00                                                                                                                                                                                                                                                                                                                                                                                                                                                                                              
  1.225000E+03  1.250000E+02 -5.225000E+03 -7.293957E+07 -1.098546E+08 -1.208615E+08  1.703915E+01 -6.112464E+04 -1.823325E+01 -2.966067E-05  1.710628E-07 -1.626923E-05  3.965545E-09 -1.422562E-05 -3.160429E-09 -4.575884E-05  0.000000E+00  0.000000E+00  0.000000E+00  0.000000E+00  0.000000E+00  0.000000E+00  0.000000E+00                                                                                                                                                                                                                                                                                                                                                                                                                                                                                              
  1.475000E+03  1.250000E+02 -5.225000E+03 -7.287620E+07 -1.102423E+08 -1.214389E+08  9.389690E+00 -7.407497E+04 -2.850782E+01 -5.155417E-06  1.649092E-07 -2.847619E-05  2.185275E-09 -1.723957E-05 -4.941356E-09 -3.346670E-05  0.000000E+00  0.000000E+00  0.000000E+00  0.000000E+00  0.000000E+00  0.000000E+00  0.000000E+00                                                                                                                                                                                                                                                                                                                                                                                                                                                                                              
  1.725000E+03  1.250000E+02 -5.225000E+03 -7.283152E+07 -1.106013E+08 -1.219566E+08  2.736117E+00 -3.942505E+04 -2.207898E+01  1.626601E-05  1.581953E-07 -3.831113E-05  6.367802E-10 -9.175444E-06 -3.827024E-09 -2.188693E-05  0.000000E+00  0.000000E+00  0.000000E+00  0.000000E+00  0.000000E+00  0.000000E+00  0.000000E+00                                                                                                                                                                                                                                                                                                                                                                                                                                                                                              
  1.975000E+03  1.250000E+02 -5.225000E+03 -7.281725E+07 -1.107938E+08 -1.222229E+08 -3.423564E-01 -1.010517E+04 -6.729499E+00  2.687965E-05  1.543214E-07 -4.258912E-05 -7.967707E-11 -2.351790E-06 -1.166447E-09 -1.555515E-05  0.000000E+00  0.000000E+00  0.000000E+00  0.000000E+00  0.000000E+00  0.000000E+00  0.000000E+00                                                                                                                                                                                                                                                                                                                                                                                                                                                                                              
  1.250000E+02  1.250000E+02 -4.975000E+03 -6.988150E+07 -1.063259E+08 -1.172806E+08 -2.407096E+00  1.121233E+04  8.826466E+00  2.565612E-05  1.359361E-07 -3.968981E-05 -5.602068E-10  2.609461E-06  1.529921E-09 -1.389776E-05  0.000000E+00  0.000000E+00  0.000000E+00  0.000000E+00  0.000000E+00  0.000000E+00  0.000000E+00                                                                                                                                                                                                                                                                                                                                                                                                                                                                                              
  3.750000E+02  1.250000E+02 -4.975000E+03 -6.987282E+07 -1.061359E+08 -1.170436E+08  2.860674E+00  5.000459E+04  2.808233E+01  1.720466E-05  1.407169E-07 -3.772351E-05  6.657684E-10  1.163764E-05  4.867604E-09 -2.037813E-05  0.000000E+00  0.000000E+00  0.000000E+00  0.000000E+00  0.000000E+00  0.000000E+00  0.000000E+00                                                                                                                                                                                                                                                                                                                                                                                                                                                                                              
  6.250000E+02  1.250000E+02 -4.975000E+03 -6.987112E+07 -1.057420E+08 -1.165158E+08  1.396655E+01  1.229190E+05  3.763509E+01 -2.097975E-06  1.491830E-07 -3.036983E-05  3.250455E-09  2.860711E-05  6.523416E-09 -3.231862E-05  0.000000E+00  0.000000E+00  0.000000E+00  0.000000E+00  0.000000E+00  0.000000E+00  0.000000E+00                                                                                                                                                                                                                                                                                                                                                                                                                                                                                              
  8.750000E+02  1.250000E+02 -4.975000E+03 -6.994123E+07 -1.052695E+08 -1.158110E+08  2.682549E+01  1.284660E+05  2.473839E+01 -3.150174E-05  1.572082E-07 -1.533792E-05  6.243132E-09  2.989806E-05  4.287987E-09 -4.668245E-05  0.000000E+00  0.000000E+00  0.000000E+00  0.000000E+00  0.000000E+00  0.000000E+00  0.000000E+00                                                                                                                                                                                                                                                                                                                                                                                                                                                                                              
  1.050000E+03  1.250000E+02 -4.975000E+03 -6.998467E+07 -1.050373E+08 -1.154443E+08  3.260038E+01 -2.860901E+02 -1.913287E-01 -4.694242E-05  1.603762E-07 -6.133125E-06  7.587130E-09 -6.658214E-08 -3.316364E-11 -5.291517E-05  0.000000E+00  0.000000E+00  0.000000E+00  0.000000E+00  0.000000E+00  0.000000E+00  0.000000E+00                                                                                                                                                                                                                                                                                                                                                                                                                                                                                              
  1.225000E+03  1.250000E+02 -4.975000E+03 -6.994106E+07 -1.052696E+08 -1.158116E+08  2.671348E+01 -1.290132E+05 -2.510685E+01 -3.147669E-05  1.571640E-07 -1.538449E-05  6.217064E-09 -3.002542E-05 -4.351854E-09 -4.670402E-05  0.000000E+00  0.000000E+00  0.000000E+00  0.000000E+00  0.000000E+00  0.000000E+00  0.000000E+00                                                                                                                                                                                                                                                                                                                                                                                                                                                                                              
  1.475000E+03  1.250000E+02 -4.975000E+03 -6.987072E+07 -1.057423E+08 -1.165173E+08  1.371408E+01 -1.233662E+05 -3.794340E+01 -2.041008E-06  1.490807E-07 -3.047584E-05  3.191695E-09 -2.871118E-05 -6.576856E-09 -3.236777E-05  0.000000E+00  0.000000E+00  0.000000E+00  0.000000E+00  0.000000E+00  0.000000E+00  0.000000E+00                                                                                                                                                                                                                                                                                                                                                                                                                                                                                              
  1.725000E+03  1.250000E+02 -4.975000E+03 -6.987226E+07 -1.061362E+08 -1.170457E+08  2.509794E+00 -5.029251E+04 -2.828276E+01  1.728500E-05  1.405708E-07 -3.787324E-05  5.841078E-10 -1.170464E-05 -4.902346E-09 -2.044767E-05  0.000000E+00  0.000000E+00  0.000000E+00  0.000000E+00  0.000000E+00  0.000000E+00  0.000000E+00                                                                                                                                                                                                                                                                                                                                                                                                                                                                                              
  1.975000E+03  1.250000E+02 -4.975000E+03 -6.988086E+07 -1.063264E+08 -1.172831E+08 -2.808800E+00 -1.131106E+04 -8.894877E+00  2.574861E-05  1.357672E-07 -3.986240E-05 -6.536957E-10 -2.632438E-06 -1.541779E-09 -1.397802E-05  0.000000E+00  0.000000E+00  0.000000E+00  0.000000E+00  0.000000E+00  0.000000E+00  0.000000E+00                                                                                                                                                                                                                                                                                                                                                                                                                                                                                              
  1.250000E+02  1.250000E+02 -4.725000E+03 -6.700061E+07 -1.018645E+08 -1.123213E+08 -1.061434E+01  4.402223E+02  1.153425E+01  2.052887E-05  1.074375E-07 -3.485700E-05 -2.470289E-09  1.024535E-07  1.999269E-09 -1.422069E-05  0.000000E+00  0.000000E+00  0.000000E+00  0.000000E+00  0.000000E+00  0.000000E+00  0.000000E+00                                                                                                                                                                                                                                                                                                                                                                                                                                                                                              
  3.750000E+02  1.250000E+02 -4.725000E+03 -6.696700E+07 -1.016809E+08 -1.121196E+08 -4.448814E+00  1.490229E+04  3.590437E+01  1.459042E-05  1.131757E-07 -3.532884E-05 -1.035378E-09  3.468230E-06  6.223424E-09 -2.062525E-05  0.000000E+00  0.000000E+00  0.000000E+00  0.000000E+00  0.000000E+00  0.000000E+00  0.000000E+00                                                                                                                                                                                                                                                                                                                                                                                                                                                                                              
  6.250000E+02  1.250000E+02 -4.725000E+03 -6.688153E+07 -1.012801E+08 -1.116686E+08  8.466966E+00  9.326731E+04  4.951607E+01  2.247926E-06  1.233979E-07 -3.532061E-05  1.970528E-09  2.170623E-05  8.582785E-09 -3.294928E-05  0.000000E+00  0.000000E+00  0.000000E+00  0.000000E+00  0.000000E+00  0.000000E+00  0.000000E+00                                                                                                                                                                                                                                                                                                                                                                                                                                                                                              
  8.750000E+02  1.250000E+02 -4.725000E+03 -6.681433E+07 -1.006263E+08 -1.107149E+08  2.397898E+01  2.198202E+05  3.408334E+01 -2.687878E-05  1.333572E-07 -1.562229E-05  5.580661E-09  5.115905E-05  5.907779E-09 -4.236772E-05  0.000000E+00  0.000000E+00  0.000000E+00  0.000000E+00  0.000000E+00  0.000000E+00  0.000000E+00                                                                                                                                                                                                                                                                                                                                                                                                                                                                                              
  1.050000E+03  1.250000E+02 -4.725000E+03 -6.690658E+07 -1.002771E+08 -1.101036E+08  3.133272E+01 -3.983963E+02 -2.169244E-01 -5.304766E-05  1.374104E-07  3.592823E-06  7.292107E-09 -9.271930E-08 -3.760022E-11 -4.931742E-05  0.000000E+00  0.000000E+00  0.000000E+00  0.000000E+00  0.000000E+00  0.000000E+00  0.000000E+00                                                                                                                                                                                                                                                                                                                                                                                                                                                                                              
  1.225000E+03  1.250000E+02 -4.725000E+03 -6.681420E+07 -1.006264E+08 -1.107156E+08  2.380741E+01 -2.205837E+05 -3.449114E+01 -2.685482E-05  1.333064E-07 -1.567198E-05  5.540730E-09 -5.133673E-05 -5.978465E-09 -4.239350E-05  0.000000E+00  0.000000E+00  0.000000E+00  0.000000E+00  0.000000E+00  0.000000E+00  0.000000E+00                                                                                                                                                                                                                                                                                                                                                                                                                                                                                              
  1.475000E+03  1.250000E+02 -4.725000E+03 -6.688124E+07 -1.012804E+08 -1.116703E+08  8.097431E+00 -9.388690E+04 -4.983750E+01  2.302496E-06  1.232848E-07 -3.543350E-05  1.884526E-09 -2.185042E-05 -8.638500E-09 -3.300772E-05  0.000000E+00  0.000000E+00  0.000000E+00  0.000000E+00  0.000000E+00  0.000000E+00  0.000000E+00                                                                                                                                                                                                                                                                                                                                                                                                                                                                                              
  1.725000E+03  1.250000E+02 -4.725000E+03 -6.696660E+07 -1.016814E+08 -1.121219E+08 -4.947318E+00 -1.529650E+04 -3.611385E+01  1.466671E-05  1.130185E-07 -3.548718E-05 -1.151396E-09 -3.559974E-06 -6.259734E-09 -2.070745E-05  0.000000E+00  0.000000E+00  0.000000E+00  0.000000E+00  0.000000E+00  0.000000E+00  0.000000E+00                                                                                                                                                                                                                                                                                                                                                                                                                                                                                              