Title="TREACTMECH V1.0-OMP-MPI stress-strain.tec: Total Stresses (Pa), Strains"                                                                                                                                                                                                                                                                                                                                                                                                                                                                                                                                                                                                                                                                                                                                                 
Variables= "X(m)"     "Y(m)"      "Z(m)"    "Sigma_xx"    "Sigma_yy"    "Sigma_zz"    "Sigma_yz"    "Sigma_xz"    "Sigma_xy"   "Strain_xx"   "Strain_yy"   "Strain_zz"   "Strain_yz"   "Strain_xz"   "Strain_xy"  "Vol_Strain"   "E_fail_xx"   "E_fail_yy"   "E_fail_zz"  "E_fail_yz2"  "E_fail_xz2"  "E_fail_xy2"  "E_fail_vol"                                                                                                                                                                                                                                                                                                                                                                                                                                                                                                
Zone T= "1.00000000E+07 sec" I=     9 J=    10 K=    23 F=Point
  1.250000E+02  1.250000E+02 -5.425000E+03 -7.524422E+07 -1.143967E+08 -1.261444E+08  2.531959E+00  3.459338E+03  7.361865E+00  2.403614E-05  1.673359E-07 -3.977499E-05  5.892662E-10  8.050963E-07  1.276057E-09 -1.557151E-05  0.000000E+00  0.000000E+00  0.000000E+00  0.000000E+00  0.000000E+00  0.000000E+00  0.000000E+00                                                                                                                                                                                                                                                                                                                                                                                                                                                                                              
  3.750000E+02  1.250000E+02 -5.425000E+03 -7.527010E+07 -1.142253E+08 -1.258834E+08  3.742407E+00  1.273836E+04  2.318288E+01  1.398530E-05  1.712407E-07 -3.403866E-05  8.709755E-10  2.964615E-06  4.018366E-09 -1.988213E-05  0.000000E+00  0.000000E+00  0.000000E+00  0.000000E+00  0.000000E+00  0.000000E+00  0.000000E+00                                                                                                                                                                                                                                                                                                                                                                                                                                                                                              
  6.250000E+02  1.250000E+02 -5.425000E+03 -7.532887E+07 -1.139212E+08 -1.254001E+08  6.337791E+00  2.259856E+04  2.815886E+01 -5.212388E-06  1.777661E-07 -2.206514E-05  1.475003E-09  5.259393E-06  4.880870E-09 -2.709976E-05  0.000000E+00  0.000000E+00  0.000000E+00  0.000000E+00  0.000000E+00  0.000000E+00  0.000000E+00                                                                                                                                                                                                                                                                                                                                                                                                                                                                                              
  8.750000E+02  1.250000E+02 -5.425000E+03 -7.539941E+07 -1.136116E+08 -1.248971E+08  9.288637E+00  1.742118E+04  1.738648E+01 -2.583796E-05  1.835327E-07 -8.866088E-06  2.161757E-09  4.054455E-06  3.013657E-09 -3.452051E-05  0.000000E+00  0.000000E+00  0.000000E+00  0.000000E+00  0.000000E+00  0.000000E+00  0.000000E+00                                                                                                                                                                                                                                                                                                                                                                                                                                                                                              
  1.050000E+03  1.250000E+02 -5.425000E+03 -7.542950E+07 -1.134714E+08 -1.246737E+08  1.055796E+01 -3.040917E+01  4.946100E-01 -3.531727E-05  1.857328E-07 -3.188222E-06  2.457167E-09 -7.077167E-09  8.573240E-11 -3.831976E-05  0.000000E+00  0.000000E+00  0.000000E+00  0.000000E+00  0.000000E+00  0.000000E+00  0.000000E+00                                                                                                                                                                                                                                                                                                                                                                                                                                                                                              
  1.225000E+03  1.250000E+02 -5.425000E+03 -7.539927E+07 -1.136117E+08 -1.248975E+08  9.315910E+00 -1.747964E+04 -1.642667E+01 -2.582001E-05  1.836520E-07 -8.897332E-06  2.168104E-09 -4.068060E-06 -2.847290E-09 -3.453369E-05  0.000000E+00  0.000000E+00  0.000000E+00  0.000000E+00  0.000000E+00  0.000000E+00  0.000000E+00                                                                                                                                                                                                                                                                                                                                                                                                                                                                                              
  1.475000E+03  1.250000E+02 -5.425000E+03 -7.532856E+07 -1.139214E+08 -1.254011E+08  6.400911E+00 -2.264662E+04 -2.736663E+01 -5.171327E-06  1.780398E-07 -2.213665E-05  1.489692E-09 -5.270579E-06 -4.743549E-09 -2.712993E-05  0.000000E+00  0.000000E+00  0.000000E+00  0.000000E+00  0.000000E+00  0.000000E+00  0.000000E+00                                                                                                                                                                                                                                                                                                                                                                                                                                                                                              
  1.725000E+03  1.250000E+02 -5.425000E+03 -7.526966E+07 -1.142256E+08 -1.258848E+08  3.833274E+00 -1.276960E+04 -2.266137E+01  1.404358E-05  1.716294E-07 -3.414021E-05  8.921230E-10 -2.971886E-06 -3.927971E-09 -1.992500E-05  0.000000E+00  0.000000E+00  0.000000E+00  0.000000E+00  0.000000E+00  0.000000E+00  0.000000E+00                                                                                                                                                                                                                                                                                                                                                                                                                                                                                              
  1.975000E+03  1.250000E+02 -5.425000E+03 -7.524371E+07 -1.143969E+08 -1.261460E+08  2.638346E+00 -3.470124E+03 -7.179037E+00  2.410357E-05  1.677863E-07 -3.989249E-05  6.140257E-10 -8.076066E-07 -1.244366E-09 -1.562114E-05  0.000000E+00  0.000000E+00  0.000000E+00  0.000000E+00  0.000000E+00  0.000000E+00  0.000000E+00                                                                                                                                                                                                                                                                                                                                                                                                                                                                                              
  1.250000E+02  1.250000E+02 -5.225000E+03 -7.287653E+07 -1.108211E+08 -1.221912E+08  9.580935E+00  1.105455E+04  8.586119E+00  2.412090E-05  1.608822E-07 -3.746365E-05  2.229784E-09  2.572741E-06  1.488261E-09 -1.318186E-05  0.000000E+00  0.000000E+00  0.000000E+00  0.000000E+00  0.000000E+00  0.000000E+00  0.000000E+00                                                                                                                                                                                                                                                                                                                                                                                                                                                                                              
  3.750000E+02  1.250000E+02 -5.225000E+03 -7.289323E+07 -1.106460E+08 -1.219394E+08  1.349219E+01  4.171257E+04  2.660613E+01  1.479792E-05  1.653238E-07 -3.293684E-05  3.140056E-09  9.707823E-06  4.611730E-09 -1.797360E-05  0.000000E+00  0.000000E+00  0.000000E+00  0.000000E+00  0.000000E+00  0.000000E+00  0.000000E+00                                                                                                                                                                                                                                                                                                                                                                                                                                                                                              
  6.250000E+02  1.250000E+02 -5.225000E+03 -7.294150E+07 -1.103156E+08 -1.214460E+08  2.143877E+01  7.631107E+04  3.336573E+01 -4.461380E-06  1.728715E-07 -2.274125E-05  4.989473E-09  1.775998E-05  5.783393E-09 -2.702976E-05  0.000000E+00  0.000000E+00  0.000000E+00  0.000000E+00  0.000000E+00  0.000000E+00  0.000000E+00                                                                                                                                                                                                                                                                                                                                                                                                                                                                                              
  8.750000E+02  1.250000E+02 -5.225000E+03 -7.300756E+07 -1.099538E+08 -1.208917E+08  3.021338E+01  6.205331E+04  2.098836E+01 -2.694148E-05  1.797031E-07 -1.028077E-05  7.031599E-09  1.444175E-05  3.637982E-09 -3.704255E-05  0.000000E+00  0.000000E+00  0.000000E+00  0.000000E+00  0.000000E+00  0.000000E+00  0.000000E+00                                                                                                                                                                                                                                                                                                                                                                                                                                                                                              
  1.050000E+03  1.250000E+02 -5.225000E+03 -7.304207E+07 -1.097851E+08 -1.206341E+08  3.402792E+01 -1.108354E+02  5.013181E-01 -3.804252E-05  1.823460E-07 -4.468951E-06  7.919363E-09 -2.579487E-08  8.689514E-11 -4.232913E-05  0.000000E+00  0.000000E+00  0.000000E+00  0.000000E+00  0.000000E+00  0.000000E+00  0.000000E+00                                                                                                                                                                                                                                                                                                                                                                                                                                                                                              
  1.225000E+03  1.250000E+02 -5.225000E+03 -7.300742E+07 -1.099539E+08 -1.208922E+08  3.031824E+01 -6.226625E+04 -2.001613E+01 -2.692345E-05  1.798245E-07 -1.031285E-05  7.056004E-09 -1.449131E-05 -3.469462E-09 -3.705647E-05  0.000000E+00  0.000000E+00  0.000000E+00  0.000000E+00  0.000000E+00  0.000000E+00  0.000000E+00                                                                                                                                                                                                                                                                                                                                                                                                                                                                                              
  1.475000E+03  1.250000E+02 -5.225000E+03 -7.294119E+07 -1.103157E+08 -1.214470E+08  2.167881E+01 -7.648589E+04 -3.256284E+01 -4.420182E-06  1.731498E-07 -2.281456E-05  5.045338E-09 -1.780066E-05 -5.644226E-09 -2.706160E-05  0.000000E+00  0.000000E+00  0.000000E+00  0.000000E+00  0.000000E+00  0.000000E+00  0.000000E+00                                                                                                                                                                                                                                                                                                                                                                                                                                                                                              
  1.725000E+03  1.250000E+02 -5.225000E+03 -7.289280E+07 -1.106462E+08 -1.219409E+08  1.383413E+01 -4.182598E+04 -2.607750E+01  1.485630E-05  1.657190E-07 -3.304083E-05  3.219636E-09 -9.734215E-06 -4.520100E-09 -1.801880E-05  0.000000E+00  0.000000E+00  0.000000E+00  0.000000E+00  0.000000E+00  0.000000E+00  0.000000E+00                                                                                                                                                                                                                                                                                                                                                                                                                                                                                              
  1.975000E+03  1.250000E+02 -5.225000E+03 -7.287602E+07 -1.108214E+08 -1.221928E+08  9.977358E+00 -1.109365E+04 -8.400895E+00  2.418837E-05  1.613400E-07 -3.758387E-05  2.322044E-09 -2.581840E-06 -1.456155E-09 -1.323415E-05  0.000000E+00  0.000000E+00  0.000000E+00  0.000000E+00  0.000000E+00  0.000000E+00  0.000000E+00                                                                                                                                                                                                                                                                                                                                                                                                                                                                                              
  1.250000E+02  1.250000E+02 -4.975000E+03 -6.991556E+07 -1.063339E+08 -1.172547E+08  8.593442E+00  1.395377E+04  1.128426E+01  2.340647E-05  1.448313E-07 -3.674374E-05  1.999963E-09  3.247479E-06  1.955938E-09 -1.319244E-05  0.000000E+00  0.000000E+00  0.000000E+00  0.000000E+00  0.000000E+00  0.000000E+00  0.000000E+00                                                                                                                                                                                                                                                                                                                                                                                                                                                                                              
  3.750000E+02  1.250000E+02 -4.975000E+03 -6.991142E+07 -1.061607E+08 -1.170300E+08  1.522742E+01  5.700949E+04  3.419510E+01  1.602399E-05  1.503837E-07 -3.437818E-05  3.543897E-09  1.326789E-05  5.927151E-09 -1.820381E-05  0.000000E+00  0.000000E+00  0.000000E+00  0.000000E+00  0.000000E+00  0.000000E+00  0.000000E+00                                                                                                                                                                                                                                                                                                                                                                                                                                                                                              
  6.250000E+02  1.250000E+02 -4.975000E+03 -6.991722E+07 -1.057951E+08 -1.165231E+08  2.857014E+01  1.305251E+05  4.454259E+01 -1.482621E-06  1.600237E-07 -2.638767E-05  6.649167E-09  3.037728E-05  7.720715E-09 -2.771027E-05  0.000000E+00  0.000000E+00  0.000000E+00  0.000000E+00  0.000000E+00  0.000000E+00  0.000000E+00                                                                                                                                                                                                                                                                                                                                                                                                                                                                                              
  8.750000E+02  1.250000E+02 -4.975000E+03 -6.999357E+07 -1.053488E+08 -1.158388E+08  4.362523E+01  1.321986E+05  2.901293E+01 -2.915681E-05  1.690625E-07 -1.086857E-05  1.015296E-08  3.076675E-05  5.028909E-09 -3.985632E-05  0.000000E+00  0.000000E+00  0.000000E+00  0.000000E+00  0.000000E+00  0.000000E+00  0.000000E+00                                                                                                                                                                                                                                                                                                                                                                                                                                                                                              
  1.050000E+03  1.250000E+02 -4.975000E+03 -7.003837E+07 -1.051200E+08 -1.154739E+08  5.039129E+01 -2.084883E+02  5.133014E-01 -4.441479E-05  1.726456E-07 -1.518101E-06  1.172763E-08 -4.852176E-08  8.897224E-11 -4.576025E-05  0.000000E+00  0.000000E+00  0.000000E+00  0.000000E+00  0.000000E+00  0.000000E+00  0.000000E+00                                                                                                                                                                                                                                                                                                                                                                                                                                                                                              
  1.225000E+03  1.250000E+02 -4.975000E+03 -6.999344E+07 -1.053489E+08 -1.158393E+08  4.382430E+01 -1.325982E+05 -2.801558E+01 -2.913876E-05  1.691880E-07 -1.090284E-05  1.019929E-08 -3.085975E-05 -4.856034E-09 -3.987241E-05  0.000000E+00  0.000000E+00  0.000000E+00  0.000000E+00  0.000000E+00  0.000000E+00  0.000000E+00                                                                                                                                                                                                                                                                                                                                                                                                                                                                                              
  1.475000E+03  1.250000E+02 -4.975000E+03 -6.991694E+07 -1.057953E+08 -1.165242E+08  2.902660E+01 -1.308520E+05 -4.372196E+01 -1.441549E-06  1.603110E-07 -2.646574E-05  6.755398E-09 -3.045336E-05 -7.578473E-09 -2.774698E-05  0.000000E+00  0.000000E+00  0.000000E+00  0.000000E+00  0.000000E+00  0.000000E+00  0.000000E+00                                                                                                                                                                                                                                                                                                                                                                                                                                                                                              
  1.725000E+03  1.250000E+02 -4.975000E+03 -6.991102E+07 -1.061610E+08 -1.170315E+08  1.587234E+01 -5.722025E+04 -3.366032E+01  1.608196E-05  1.507903E-07 -3.448851E-05  3.693990E-09 -1.331695E-05 -5.834456E-09 -1.825576E-05  0.000000E+00  0.000000E+00  0.000000E+00  0.000000E+00  0.000000E+00  0.000000E+00  0.000000E+00                                                                                                                                                                                                                                                                                                                                                                                                                                                                                              
  1.975000E+03  1.250000E+02 -4.975000E+03 -6.991509E+07 -1.063342E+08 -1.172565E+08  9.335891E+00 -1.402609E+04 -1.109775E+01  2.347324E-05  1.453008E-07 -3.687096E-05  2.172754E-09 -3.264311E-06 -1.923609E-09 -1.325242E-05  0.000000E+00  0.000000E+00  0.000000E+00  0.000000E+00  0.000000E+00  0.000000E+00  0.000000E+00                                                                                                                                                                                                                                                                                                                                                                                                                                                                                              
  1.250000E+02  1.250000E+02 -4.725000E+03 -6.697898E+07 -1.018270E+08 -1.123033E+08 -9.404761E+00  4.764618E+03  1.414434E+01  1.916635E-05  1.174128E-07 -3.652927E-05 -2.188783E-09  1.108876E-06  2.451686E-09 -1.724551E-05  0.000000E+00  0.000000E+00  0.000000E+00  0.000000E+00  0.000000E+00  0.000000E+00  0.000000E+00                                                                                                                                                                                                                                                                                                                                                                                                                                                                                              
  3.750000E+02  1.250000E+02 -4.725000E+03 -6.694753E+07 -1.016537E+08 -1.121106E+08 -2.234820E+00  2.645398E+04  4.257404E+01  1.392619E-05  1.240285E-07 -3.690129E-05 -5.201127E-10  6.156670E-06  7.379500E-09 -2.285107E-05  0.000000E+00  0.000000E+00  0.000000E+00  0.000000E+00  0.000000E+00  0.000000E+00  0.000000E+00                                                                                                                                                                                                                                                                                                                                                                                                                                                                                              
  6.250000E+02  1.250000E+02 -4.725000E+03 -6.686655E+07 -1.012697E+08 -1.116735E+08  1.238014E+01  1.067380E+05  5.753050E+01  2.656954E-06  1.356474E-07 -3.663421E-05  2.881247E-09  2.484127E-05  9.971954E-09 -3.384161E-05  0.000000E+00  0.000000E+00  0.000000E+00  0.000000E+00  0.000000E+00  0.000000E+00  0.000000E+00                                                                                                                                                                                                                                                                                                                                                                                                                                                                                              
  8.750000E+02  1.250000E+02 -4.725000E+03 -6.680430E+07 -1.006315E+08 -1.107342E+08  3.005728E+01  2.259605E+05  3.965464E+01 -2.553756E-05  1.469144E-07 -1.682403E-05  6.995272E-09  5.258809E-05  6.873471E-09 -4.221468E-05  0.000000E+00  0.000000E+00  0.000000E+00  0.000000E+00  0.000000E+00  0.000000E+00  0.000000E+00                                                                                                                                                                                                                                                                                                                                                                                                                                                                                              
  1.050000E+03  1.250000E+02 -4.725000E+03 -6.689672E+07 -1.002850E+08 -1.101262E+08  3.869765E+01 -2.934974E+02  5.351299E-01 -5.149551E-05  1.515399E-07  2.332137E-06  9.006156E-09 -6.830604E-08  9.275585E-11 -4.901184E-05  0.000000E+00  0.000000E+00  0.000000E+00  0.000000E+00  0.000000E+00  0.000000E+00  0.000000E+00                                                                                                                                                                                                                                                                                                                                                                                                                                                                                              
  1.225000E+03  1.250000E+02 -4.725000E+03 -6.680420E+07 -1.006316E+08 -1.107347E+08  3.036170E+01 -2.265236E+05 -3.865576E+01 -2.552036E-05  1.470465E-07 -1.686126E-05  7.066119E-09 -5.271913E-05 -6.700332E-09 -4.223458E-05  0.000000E+00  0.000000E+00  0.000000E+00  0.000000E+00  0.000000E+00  0.000000E+00  0.000000E+00                                                                                                                                                                                                                                                                                                                                                                                                                                                                                              
  1.475000E+03  1.250000E+02 -4.725000E+03 -6.686633E+07 -1.012699E+08 -1.116747E+08  1.303748E+01 -1.071959E+05 -5.674766E+01  2.696194E-06  1.359391E-07 -3.671883E-05  3.034231E-09 -2.494784E-05 -9.836260E-09 -3.388669E-05  0.000000E+00  0.000000E+00  0.000000E+00  0.000000E+00  0.000000E+00  0.000000E+00  0.000000E+00                                                                                                                                                                                                                                                                                                                                                                                                                                                                                              
  1.725000E+03  1.250000E+02 -4.725000E+03 -6.694722E+07 -1.016540E+08 -1.121123E+08 -1.331382E+00 -2.674579E+04 -4.206459E+01  1.398113E-05  1.244315E-07 -3.702009E-05 -3.098543E-10 -6.224584E-06 -7.291196E-09 -2.291453E-05  0.000000E+00  0.000000E+00  0.000000E+00  0.000000E+00  0.000000E+00  0.000000E+00  0.000000E+00                                                                                                                                                                                                                                                                                                                                                                                                                                                                                              