Title="TREACTMECH V1.0-OMP-MPI stress-strain.tec: Total Stresses (Pa), Strains"                                                                                                                                                                                                                                                                                                                                                                                                                                                                                                                                                                                                                                                                                                                                                 
Variables= "X(m)"     "Y(m)"      "Z(m)"    "Sigma_xx"    "Sigma_yy"    "Sigma_zz"    "Sigma_yz"    "Sigma_xz"    "Sigma_xy"   "Strain_xx"   "Strain_yy"   "Strain_zz"   "Strain_yz"   "Strain_xz"   "Strain_xy"  "Vol_Strain"   "E_fail_xx"   "E_fail_yy"   "E_fail_zz"  "E_fail_yz2"  "E_fail_xz2"  "E_fail_xy2"  "E_fail_vol"                                                                                                                                                                                                                                                                                                                                                                                                                                                                                                
Zone T= "1.00000000E+10 sec" I=     9 J=    10 K=    23 F=Point
  1.250000E+02  1.250000E+02 -5.425000E+03 -7.480598E+07 -1.139936E+08 -1.261802E+08 -1.174304E+00  3.369615E+03  5.854884E+00  2.707971E-05  1.580253E-07 -7.781181E-05 -2.732973E-10  7.842150E-07  1.014847E-09 -5.057408E-05  0.000000E+00  0.000000E+00  0.000000E+00  0.000000E+00  0.000000E+00  0.000000E+00  0.000000E+00                                                                                                                                                                                                                                                                                                                                                                                                                                                                                              
  3.750000E+02  1.250000E+02 -5.425000E+03 -7.483144E+07 -1.138053E+08 -1.259025E+08 -2.422268E-01  1.263814E+04  1.953397E+01  1.559092E-05  1.614718E-07 -7.211243E-05 -5.637376E-11  2.941292E-06  3.385887E-09 -5.636004E-05  0.000000E+00  0.000000E+00  0.000000E+00  0.000000E+00  0.000000E+00  0.000000E+00  0.000000E+00                                                                                                                                                                                                                                                                                                                                                                                                                                                                                              
  6.250000E+02  1.250000E+02 -5.425000E+03 -7.489024E+07 -1.134734E+08 -1.253912E+08  1.908902E+00  2.274168E+04  2.426472E+01 -6.015888E-06  1.673292E-07 -6.010808E-05  4.442614E-10  5.292701E-06  4.205884E-09 -6.595664E-05  0.000000E+00  0.000000E+00  0.000000E+00  0.000000E+00  0.000000E+00  0.000000E+00  0.000000E+00                                                                                                                                                                                                                                                                                                                                                                                                                                                                                              
  8.750000E+02  1.250000E+02 -5.425000E+03 -7.496153E+07 -1.131388E+08 -1.248616E+08  4.474062E+00  1.767913E+04  1.507445E+01 -2.887677E-05  1.725472E-07 -4.678042E-05  1.041254E-09  4.114488E-06  2.612905E-09 -7.548464E-05  0.000000E+00  0.000000E+00  0.000000E+00  0.000000E+00  0.000000E+00  0.000000E+00  0.000000E+00                                                                                                                                                                                                                                                                                                                                                                                                                                                                                              
  1.050000E+03  1.250000E+02 -5.425000E+03 -7.499216E+07 -1.129952E+08 -1.246339E+08  5.596246E+00  1.257953E+01 -1.622493E-02 -3.869907E-05  1.745254E-07 -4.101618E-05  1.302422E-09  2.927652E-09 -2.812320E-12 -7.954073E-05  0.000000E+00  0.000000E+00  0.000000E+00  0.000000E+00  0.000000E+00  0.000000E+00  0.000000E+00                                                                                                                                                                                                                                                                                                                                                                                                                                                                                              
  1.225000E+03  1.250000E+02 -5.425000E+03 -7.496159E+07 -1.131388E+08 -1.248615E+08  4.473932E+00 -1.765498E+04 -1.511145E+01 -2.888419E-05  1.725441E-07 -4.676761E-05  1.041224E-09 -4.108868E-06 -2.619318E-09 -7.547925E-05  0.000000E+00  0.000000E+00  0.000000E+00  0.000000E+00  0.000000E+00  0.000000E+00  0.000000E+00                                                                                                                                                                                                                                                                                                                                                                                                                                                                                              
  1.475000E+03  1.250000E+02 -5.425000E+03 -7.489037E+07 -1.134734E+08 -1.253908E+08  1.906852E+00 -2.272185E+04 -2.428931E+01 -6.032858E-06  1.673224E-07 -6.007877E-05  4.437842E-10 -5.288086E-06 -4.210146E-09 -6.594431E-05  0.000000E+00  0.000000E+00  0.000000E+00  0.000000E+00  0.000000E+00  0.000000E+00  0.000000E+00                                                                                                                                                                                                                                                                                                                                                                                                                                                                                              
  1.725000E+03  1.250000E+02 -5.425000E+03 -7.483162E+07 -1.138052E+08 -1.259020E+08 -2.463293E-01 -1.262527E+04 -1.955017E+01  1.556684E-05  1.614631E-07 -7.207082E-05 -5.732855E-11 -2.938296E-06 -3.388697E-09 -5.634252E-05  0.000000E+00  0.000000E+00  0.000000E+00  0.000000E+00  0.000000E+00  0.000000E+00  0.000000E+00                                                                                                                                                                                                                                                                                                                                                                                                                                                                                              
  1.975000E+03  1.250000E+02 -5.425000E+03 -7.480619E+07 -1.139935E+08 -1.261795E+08 -1.178852E+00 -3.365175E+03 -5.861440E+00  2.705186E-05  1.580154E-07 -7.776368E-05 -2.743559E-10 -7.831816E-07 -1.015983E-09 -5.055380E-05  0.000000E+00  0.000000E+00  0.000000E+00  0.000000E+00  0.000000E+00  0.000000E+00  0.000000E+00                                                                                                                                                                                                                                                                                                                                                                                                                                                                                              
  1.250000E+02  1.250000E+02 -5.225000E+03 -7.243962E+07 -1.104186E+08 -1.222265E+08 -4.533369E-01  1.046417E+04  6.790600E+00  2.708996E-05  1.499299E-07 -7.542262E-05 -1.055057E-10  2.435339E-06  1.177037E-09 -4.818273E-05  0.000000E+00  0.000000E+00  0.000000E+00  0.000000E+00  0.000000E+00  0.000000E+00  0.000000E+00                                                                                                                                                                                                                                                                                                                                                                                                                                                                                              
  3.750000E+02  1.250000E+02 -5.225000E+03 -7.245464E+07 -1.102259E+08 -1.219588E+08  2.497019E+00  4.054762E+04  2.220168E+01  1.639102E-05  1.538218E-07 -7.103716E-05  5.811345E-10  9.436703E-06  3.848291E-09 -5.449232E-05  0.000000E+00  0.000000E+00  0.000000E+00  0.000000E+00  0.000000E+00  0.000000E+00  0.000000E+00                                                                                                                                                                                                                                                                                                                                                                                                                                                                                              
  6.250000E+02  1.250000E+02 -5.225000E+03 -7.250077E+07 -1.098663E+08 -1.214376E+08  8.899482E+00  7.594573E+04  2.853920E+01 -5.209280E-06  1.605527E-07 -6.095980E-05  2.071188E-09  1.767495E-05  4.946794E-09 -6.600852E-05  0.000000E+00  0.000000E+00  0.000000E+00  0.000000E+00  0.000000E+00  0.000000E+00  0.000000E+00                                                                                                                                                                                                                                                                                                                                                                                                                                                                                              
  8.750000E+02  1.250000E+02 -5.225000E+03 -7.256629E+07 -1.094780E+08 -1.208561E+08  1.627699E+01  6.259932E+04  1.810948E+01 -2.995531E-05  1.667017E-07 -4.844554E-05  3.788167E-09  1.456882E-05  3.138976E-09 -7.823415E-05  0.000000E+00  0.000000E+00  0.000000E+00  0.000000E+00  0.000000E+00  0.000000E+00  0.000000E+00                                                                                                                                                                                                                                                                                                                                                                                                                                                                                              
  1.050000E+03  1.250000E+02 -5.225000E+03 -7.260064E+07 -1.093052E+08 -1.205934E+08  1.952945E+01  4.584393E+01 -1.559957E-02 -4.139052E-05  1.690707E-07 -4.255074E-05  4.545116E-09  1.066932E-08 -2.703926E-12 -8.377219E-05  0.000000E+00  0.000000E+00  0.000000E+00  0.000000E+00  0.000000E+00  0.000000E+00  0.000000E+00                                                                                                                                                                                                                                                                                                                                                                                                                                                                                              
  1.225000E+03  1.250000E+02 -5.225000E+03 -7.256635E+07 -1.094779E+08 -1.208559E+08  1.627243E+01 -6.251139E+04 -1.814784E+01 -2.996278E-05  1.666985E-07 -4.843240E-05  3.787105E-09 -1.454836E-05 -3.145626E-09 -7.822848E-05  0.000000E+00  0.000000E+00  0.000000E+00  0.000000E+00  0.000000E+00  0.000000E+00  0.000000E+00                                                                                                                                                                                                                                                                                                                                                                                                                                                                                              
  1.475000E+03  1.250000E+02 -5.225000E+03 -7.250090E+07 -1.098663E+08 -1.214372E+08  8.888493E+00 -7.587364E+04 -2.856584E+01 -5.226330E-06  1.605458E-07 -6.092978E-05  2.068631E-09 -1.765817E-05 -4.951412E-09 -6.599557E-05  0.000000E+00  0.000000E+00  0.000000E+00  0.000000E+00  0.000000E+00  0.000000E+00  0.000000E+00                                                                                                                                                                                                                                                                                                                                                                                                                                                                                              
  1.725000E+03  1.250000E+02 -5.225000E+03 -7.245482E+07 -1.102258E+08 -1.219582E+08  2.481545E+00 -4.050093E+04 -2.221815E+01  1.636687E-05  1.538128E-07 -7.099462E-05  5.775332E-10 -9.425836E-06 -3.851146E-09 -5.447394E-05  0.000000E+00  0.000000E+00  0.000000E+00  0.000000E+00  0.000000E+00  0.000000E+00  0.000000E+00                                                                                                                                                                                                                                                                                                                                                                                                                                                                                              
  1.975000E+03  1.250000E+02 -5.225000E+03 -7.243983E+07 -1.104185E+08 -1.222258E+08 -4.706277E-01 -1.044809E+04 -6.796480E+00  2.706206E-05  1.499197E-07 -7.537345E-05 -1.095298E-10 -2.431597E-06 -1.178056E-09 -4.816146E-05  0.000000E+00  0.000000E+00  0.000000E+00  0.000000E+00  0.000000E+00  0.000000E+00  0.000000E+00                                                                                                                                                                                                                                                                                                                                                                                                                                                                                              
  1.250000E+02  1.250000E+02 -4.975000E+03 -6.949938E+07 -1.059484E+08 -1.172878E+08  1.322240E+00  1.201589E+04  8.884156E+00  2.605263E-05  1.316274E-07 -7.303453E-05  3.077266E-10  2.796474E-06  1.539920E-09 -4.685027E-05  0.000000E+00  0.000000E+00  0.000000E+00  0.000000E+00  0.000000E+00  0.000000E+00  0.000000E+00                                                                                                                                                                                                                                                                                                                                                                                                                                                                                              
  3.750000E+02  1.250000E+02 -4.975000E+03 -6.949152E+07 -1.057581E+08 -1.170491E+08  6.187059E+00  5.266911E+04  2.814657E+01  1.750526E-05  1.364211E-07 -7.094541E-05  1.439923E-09  1.225775E-05  4.878738E-09 -5.330373E-05  0.000000E+00  0.000000E+00  0.000000E+00  0.000000E+00  0.000000E+00  0.000000E+00  0.000000E+00                                                                                                                                                                                                                                                                                                                                                                                                                                                                                              
  6.250000E+02  1.250000E+02 -4.975000E+03 -6.949254E+07 -1.053638E+08 -1.165171E+08  1.653748E+01  1.275518E+05  3.748489E+01 -2.074049E-06  1.448827E-07 -6.326187E-05  3.848790E-09  2.968530E-05  6.497380E-09 -6.519104E-05  0.000000E+00  0.000000E+00  0.000000E+00  0.000000E+00  0.000000E+00  0.000000E+00  0.000000E+00                                                                                                                                                                                                                                                                                                                                                                                                                                                                                              
  8.750000E+02  1.250000E+02 -4.975000E+03 -6.956599E+07 -1.048897E+08 -1.158036E+08  2.864757E+01  1.332279E+05  2.457766E+01 -3.190308E-05  1.528835E-07 -4.762122E-05  6.667187E-09  3.100631E-05  4.260128E-09 -7.937141E-05  0.000000E+00  0.000000E+00  0.000000E+00  0.000000E+00  0.000000E+00  0.000000E+00  0.000000E+00                                                                                                                                                                                                                                                                                                                                                                                                                                                                                              
  1.050000E+03  1.250000E+02 -4.975000E+03 -6.961357E+07 -1.046574E+08 -1.154323E+08  3.414102E+01  8.610386E+01 -1.728261E-02 -4.771310E-05  1.560449E-07 -3.802879E-05  7.945686E-09  2.003907E-08 -2.995653E-12 -8.558584E-05  0.000000E+00  0.000000E+00  0.000000E+00  0.000000E+00  0.000000E+00  0.000000E+00  0.000000E+00                                                                                                                                                                                                                                                                                                                                                                                                                                                                                              
  1.225000E+03  1.250000E+02 -4.975000E+03 -6.956604E+07 -1.048897E+08 -1.158034E+08  2.863755E+01 -1.330633E+05 -2.461983E+01 -3.191058E-05  1.528801E-07 -4.760723E-05  6.664855E-09 -3.096800E-05 -4.267438E-09 -7.936493E-05  0.000000E+00  0.000000E+00  0.000000E+00  0.000000E+00  0.000000E+00  0.000000E+00  0.000000E+00                                                                                                                                                                                                                                                                                                                                                                                                                                                                                              
  1.475000E+03  1.250000E+02 -4.975000E+03 -6.949265E+07 -1.053637E+08 -1.165166E+08  1.651488E+01 -1.274174E+05 -3.751439E+01 -2.091107E-06  1.448752E-07 -6.323005E-05  3.843530E-09 -2.965401E-05 -6.502494E-09 -6.517628E-05  0.000000E+00  0.000000E+00  0.000000E+00  0.000000E+00  0.000000E+00  0.000000E+00  0.000000E+00                                                                                                                                                                                                                                                                                                                                                                                                                                                                                              
  1.725000E+03  1.250000E+02 -4.975000E+03 -6.949169E+07 -1.057580E+08 -1.170485E+08  6.155919E+00 -5.258262E+04 -2.816381E+01  1.748121E-05  1.364114E-07 -7.090047E-05  1.432675E-09 -1.223762E-05 -4.881727E-09 -5.328286E-05  0.000000E+00  0.000000E+00  0.000000E+00  0.000000E+00  0.000000E+00  0.000000E+00  0.000000E+00                                                                                                                                                                                                                                                                                                                                                                                                                                                                                              
  1.975000E+03  1.250000E+02 -4.975000E+03 -6.949957E+07 -1.059483E+08 -1.172871E+08  1.286711E+00 -1.198625E+04 -8.889905E+00  2.602495E-05  1.316165E-07 -7.298275E-05  2.994579E-10 -2.789576E-06 -1.540917E-09 -4.682618E-05  0.000000E+00  0.000000E+00  0.000000E+00  0.000000E+00  0.000000E+00  0.000000E+00  0.000000E+00                                                                                                                                                                                                                                                                                                                                                                                                                                                                                              
  1.250000E+02  1.250000E+02 -4.725000E+03 -6.661490E+07 -1.014857E+08 -1.123306E+08  2.066170E+00  1.758202E+03  1.113620E+01  2.112209E-05  1.050434E-07 -6.849614E-05  4.808624E-10  4.091888E-07  1.930275E-09 -4.726901E-05  0.000000E+00  0.000000E+00  0.000000E+00  0.000000E+00  0.000000E+00  0.000000E+00  0.000000E+00                                                                                                                                                                                                                                                                                                                                                                                                                                                                                              
  3.750000E+02  1.250000E+02 -4.725000E+03 -6.658244E+07 -1.013022E+08 -1.121283E+08  7.064731E+00  1.897191E+04  3.479392E+01  1.509447E-05  1.106578E-07 -6.890269E-05  1.644184E-09  4.415359E-06  6.030946E-09 -5.369756E-05  0.000000E+00  0.000000E+00  0.000000E+00  0.000000E+00  0.000000E+00  0.000000E+00  0.000000E+00                                                                                                                                                                                                                                                                                                                                                                                                                                                                                              
  6.250000E+02  1.250000E+02 -4.725000E+03 -6.649843E+07 -1.009004E+08 -1.116727E+08  1.821665E+01  1.022589E+05  4.793651E+01  2.543110E-06  1.206567E-07 -6.857859E-05  4.239586E-09  2.379885E-05  8.308994E-09 -6.591483E-05  0.000000E+00  0.000000E+00  0.000000E+00  0.000000E+00  0.000000E+00  0.000000E+00  0.000000E+00                                                                                                                                                                                                                                                                                                                                                                                                                                                                                              
  8.750000E+02  1.250000E+02 -4.725000E+03 -6.644515E+07 -1.002461E+08 -1.107033E+08  3.235285E+01  2.321981E+05  3.304860E+01 -2.783429E-05  1.304023E-07 -4.756871E-05  7.529522E-09  5.403977E-05  5.728424E-09 -7.527260E-05  0.000000E+00  0.000000E+00  0.000000E+00  0.000000E+00  0.000000E+00  0.000000E+00  0.000000E+00                                                                                                                                                                                                                                                                                                                                                                                                                                                                                              
  1.050000E+03  1.250000E+02 -4.725000E+03 -6.653738E+07 -9.989181E+07 -1.100749E+08  3.928931E+01  1.197687E+02 -1.983859E-02 -5.444553E-05  1.343814E-07 -2.731311E-05  9.143855E-09  2.787393E-08 -3.438689E-12 -8.162426E-05  0.000000E+00  0.000000E+00  0.000000E+00  0.000000E+00  0.000000E+00  0.000000E+00  0.000000E+00                                                                                                                                                                                                                                                                                                                                                                                                                                                                                              
  1.225000E+03  1.250000E+02 -4.725000E+03 -6.644519E+07 -1.002460E+08 -1.107031E+08  3.233482E+01 -2.319686E+05 -3.309255E+01 -2.784147E-05  1.303987E-07 -4.755381E-05  7.525327E-09 -5.398637E-05 -5.736041E-09 -7.526489E-05  0.000000E+00  0.000000E+00  0.000000E+00  0.000000E+00  0.000000E+00  0.000000E+00  0.000000E+00                                                                                                                                                                                                                                                                                                                                                                                                                                                                                              
  1.475000E+03  1.250000E+02 -4.725000E+03 -6.649851E+07 -1.009003E+08 -1.116722E+08  1.817842E+01 -1.020728E+05 -4.796629E+01  2.526752E-06  1.206490E-07 -6.854475E-05  4.230689E-09 -2.375555E-05 -8.314156E-09 -6.589735E-05  0.000000E+00  0.000000E+00  0.000000E+00  0.000000E+00  0.000000E+00  0.000000E+00  0.000000E+00                                                                                                                                                                                                                                                                                                                                                                                                                                                                                              
  1.725000E+03  1.250000E+02 -4.725000E+03 -6.658256E+07 -1.013021E+08 -1.121276E+08  7.012977E+00 -1.885367E+04 -3.481151E+01  1.507161E-05  1.106478E-07 -6.885525E-05  1.632139E-09 -4.387840E-06 -6.033995E-09 -5.367299E-05  0.000000E+00  0.000000E+00  0.000000E+00  0.000000E+00  0.000000E+00  0.000000E+00  0.000000E+00                                                                                                                                                                                                                                                                                                                                                                                                                                                                                              