Title="TREACTMECH V1.0-OMP-MPI stress-strain.tec: Total Stresses (Pa), Strains"                                                                                                                                                                                                                                                                                                                                                                                                                                                                                                                                                                                                                                                                                                                                                 
Variables= "X(m)"     "Y(m)"      "Z(m)"    "Sigma_xx"    "Sigma_yy"    "Sigma_zz"    "Sigma_yz"    "Sigma_xz"    "Sigma_xy"   "Strain_xx"   "Strain_yy"   "Strain_zz"   "Strain_yz"   "Strain_xz"   "Strain_xy"  "Vol_Strain"   "E_fail_xx"   "E_fail_yy"   "E_fail_zz"  "E_fail_yz2"  "E_fail_xz2"  "E_fail_xy2"  "E_fail_vol"                                                                                                                                                                                                                                                                                                                                                                                                                                                                                                
Zone T= "1.00000000E+06 sec" I=     9 J=    10 K=    23 F=Point
  1.250000E+02  1.250000E+02 -5.425000E+03 -7.525438E+07 -1.143903E+08 -1.261248E+08  1.876527E+00  2.954270E+03  7.847479E+00  2.259977E-05  1.599329E-07 -3.862856E-05  4.367267E-10  6.875512E-07  1.360230E-09 -1.586886E-05  0.000000E+00  0.000000E+00  0.000000E+00  0.000000E+00  0.000000E+00  0.000000E+00  0.000000E+00                                                                                                                                                                                                                                                                                                                                                                                                                                                                                              
  3.750000E+02  1.250000E+02 -5.425000E+03 -7.527692E+07 -1.142226E+08 -1.258726E+08  3.171227E+00  1.117206E+04  2.429441E+01  1.314783E-05  1.639860E-07 -3.335051E-05  7.380438E-10  2.600089E-06  4.211030E-09 -2.003869E-05  0.000000E+00  0.000000E+00  0.000000E+00  0.000000E+00  0.000000E+00  0.000000E+00  0.000000E+00                                                                                                                                                                                                                                                                                                                                                                                                                                                                                              
  6.250000E+02  1.250000E+02 -5.425000E+03 -7.532912E+07 -1.139249E+08 -1.254049E+08  5.915028E+00  2.041741E+04  2.902446E+01 -4.920765E-06  1.707043E-07 -2.216916E-05  1.376612E-09  4.751771E-06  5.030907E-09 -2.691922E-05  0.000000E+00  0.000000E+00  0.000000E+00  0.000000E+00  0.000000E+00  0.000000E+00  0.000000E+00                                                                                                                                                                                                                                                                                                                                                                                                                                                                                              
  8.750000E+02  1.250000E+02 -5.425000E+03 -7.539307E+07 -1.136241E+08 -1.249189E+08  8.997016E+00  1.606196E+04  1.736442E+01 -2.421720E-05  1.765660E-07 -9.687943E-06  2.093888E-09  3.738121E-06  3.009833E-09 -3.372858E-05  0.000000E+00  0.000000E+00  0.000000E+00  0.000000E+00  0.000000E+00  0.000000E+00  0.000000E+00                                                                                                                                                                                                                                                                                                                                                                                                                                                                                              
  1.050000E+03  1.250000E+02 -5.425000E+03 -7.542084E+07 -1.134908E+08 -1.247055E+08  1.030561E+01  1.020603E+01 -5.658866E-01 -3.289375E-05  1.787358E-07 -4.271134E-06  2.398439E-09  2.375264E-09 -9.808701E-11 -3.698615E-05  0.000000E+00  0.000000E+00  0.000000E+00  0.000000E+00  0.000000E+00  0.000000E+00  0.000000E+00                                                                                                                                                                                                                                                                                                                                                                                                                                                                                              
  1.225000E+03  1.250000E+02 -5.425000E+03 -7.539311E+07 -1.136241E+08 -1.249188E+08  8.966732E+00 -1.604234E+04 -1.846820E+01 -2.422321E-05  1.764292E-07 -9.677476E-06  2.086839E-09 -3.733555E-06 -3.201154E-09 -3.372425E-05  0.000000E+00  0.000000E+00  0.000000E+00  0.000000E+00  0.000000E+00  0.000000E+00  0.000000E+00                                                                                                                                                                                                                                                                                                                                                                                                                                                                                              
  1.475000E+03  1.250000E+02 -5.425000E+03 -7.532922E+07 -1.139248E+08 -1.254046E+08  5.844468E+00 -2.040128E+04 -2.994046E+01 -4.934498E-06  1.703892E-07 -2.214521E-05  1.360191E-09 -4.748017E-06 -5.189679E-09 -2.690932E-05  0.000000E+00  0.000000E+00  0.000000E+00  0.000000E+00  0.000000E+00  0.000000E+00  0.000000E+00                                                                                                                                                                                                                                                                                                                                                                                                                                                                                              
  1.725000E+03  1.250000E+02 -5.425000E+03 -7.527707E+07 -1.142225E+08 -1.258721E+08  3.071257E+00 -1.116158E+04 -2.490093E+01  1.312834E-05  1.635369E-07 -3.331650E-05  7.147777E-10 -2.597650E-06 -4.316161E-09 -2.002462E-05  0.000000E+00  0.000000E+00  0.000000E+00  0.000000E+00  0.000000E+00  0.000000E+00  0.000000E+00                                                                                                                                                                                                                                                                                                                                                                                                                                                                                              
  1.975000E+03  1.250000E+02 -5.425000E+03 -7.525455E+07 -1.143902E+08 -1.261242E+08  1.763060E+00 -2.950653E+03 -8.059952E+00  2.257723E-05  1.594116E-07 -3.858921E-05  4.103193E-10 -6.867093E-07 -1.397058E-09 -1.585257E-05  0.000000E+00  0.000000E+00  0.000000E+00  0.000000E+00  0.000000E+00  0.000000E+00  0.000000E+00                                                                                                                                                                                                                                                                                                                                                                                                                                                                                              
  1.250000E+02  1.250000E+02 -5.225000E+03 -7.288632E+07 -1.108127E+08 -1.221696E+08  9.603779E+00  9.524727E+03  9.058725E+00  2.253401E-05  1.534641E-07 -3.633334E-05  2.235100E-09  2.216702E-06  1.570179E-09 -1.364586E-05  0.000000E+00  0.000000E+00  0.000000E+00  0.000000E+00  0.000000E+00  0.000000E+00  0.000000E+00                                                                                                                                                                                                                                                                                                                                                                                                                                                                                              
  3.750000E+02  1.250000E+02 -5.225000E+03 -7.290114E+07 -1.106427E+08 -1.219267E+08  1.369962E+01  3.750165E+04  2.772522E+01  1.381954E-05  1.580566E-07 -3.212444E-05  3.188331E-09  8.727810E-06  4.805704E-09 -1.814684E-05  0.000000E+00  0.000000E+00  0.000000E+00  0.000000E+00  0.000000E+00  0.000000E+00  0.000000E+00                                                                                                                                                                                                                                                                                                                                                                                                                                                                                              
  6.250000E+02  1.250000E+02 -5.225000E+03 -7.294703E+07 -1.103241E+08 -1.214506E+08  2.217380E+01  7.086726E+04  3.432855E+01 -4.203792E-06  1.658141E-07 -2.240445E-05  5.160538E-09  1.649303E-05  5.950283E-09 -2.644243E-05  0.000000E+00  0.000000E+00  0.000000E+00  0.000000E+00  0.000000E+00  0.000000E+00  0.000000E+00                                                                                                                                                                                                                                                                                                                                                                                                                                                                                              
  8.750000E+02  1.250000E+02 -5.225000E+03 -7.301049E+07 -1.099784E+08 -1.209168E+08  3.159668E+01  5.877284E+04  2.108602E+01 -2.507214E-05  1.727693E-07 -1.032969E-05  7.353538E-09  1.367828E-05  3.654910E-09 -3.522906E-05  0.000000E+00  0.000000E+00  0.000000E+00  0.000000E+00  0.000000E+00  0.000000E+00  0.000000E+00                                                                                                                                                                                                                                                                                                                                                                                                                                                                                              
  1.050000E+03  1.250000E+02 -5.225000E+03 -7.304410E+07 -1.098196E+08 -1.206706E+08  3.565812E+01  3.719979E+01 -5.737673E-01 -3.523333E-05  1.753958E-07 -4.645693E-06  8.298762E-09  8.657557E-09 -9.945300E-11 -3.970363E-05  0.000000E+00  0.000000E+00  0.000000E+00  0.000000E+00  0.000000E+00  0.000000E+00  0.000000E+00                                                                                                                                                                                                                                                                                                                                                                                                                                                                                              
  1.225000E+03  1.250000E+02 -5.225000E+03 -7.301053E+07 -1.099784E+08 -1.209167E+08  3.148555E+01 -5.870139E+04 -2.220423E+01 -2.507817E-05  1.726303E-07 -1.031895E-05  7.327674E-09 -1.366165E-05 -3.848734E-09 -3.522449E-05  0.000000E+00  0.000000E+00  0.000000E+00  0.000000E+00  0.000000E+00  0.000000E+00  0.000000E+00                                                                                                                                                                                                                                                                                                                                                                                                                                                                                              
  1.475000E+03  1.250000E+02 -5.225000E+03 -7.294713E+07 -1.103241E+08 -1.214503E+08  2.192095E+01 -7.080861E+04 -3.525511E+01 -4.217575E-06  1.654942E-07 -2.237989E-05  5.101693E-09 -1.647938E-05 -6.110886E-09 -2.643197E-05  0.000000E+00  0.000000E+00  0.000000E+00  0.000000E+00  0.000000E+00  0.000000E+00  0.000000E+00                                                                                                                                                                                                                                                                                                                                                                                                                                                                                              
  1.725000E+03  1.250000E+02 -5.225000E+03 -7.290128E+07 -1.106426E+08 -1.219262E+08  1.334195E+01 -3.746362E+04 -2.833610E+01  1.380001E-05  1.576011E-07 -3.208960E-05  3.105090E-09 -8.718957E-06 -4.911590E-09 -1.813199E-05  0.000000E+00  0.000000E+00  0.000000E+00  0.000000E+00  0.000000E+00  0.000000E+00  0.000000E+00                                                                                                                                                                                                                                                                                                                                                                                                                                                                                              
  1.975000E+03  1.250000E+02 -5.225000E+03 -7.288649E+07 -1.108126E+08 -1.221691E+08  9.190662E+00 -9.511615E+03 -9.271517E+00  2.251144E-05  1.529360E-07 -3.629307E-05  2.138955E-09 -2.213651E-06 -1.607063E-09 -1.362869E-05  0.000000E+00  0.000000E+00  0.000000E+00  0.000000E+00  0.000000E+00  0.000000E+00  0.000000E+00                                                                                                                                                                                                                                                                                                                                                                                                                                                                                              
  1.250000E+02  1.250000E+02 -4.975000E+03 -6.994169E+07 -1.063396E+08 -1.172294E+08  1.564018E+01  1.202027E+04  1.166101E+01  2.162459E-05  1.385706E-07 -3.406117E-05  3.639960E-09  2.797494E-06  2.021241E-09 -1.229801E-05  0.000000E+00  0.000000E+00  0.000000E+00  0.000000E+00  0.000000E+00  0.000000E+00  0.000000E+00                                                                                                                                                                                                                                                                                                                                                                                                                                                                                              
  3.750000E+02  1.250000E+02 -4.975000E+03 -6.993809E+07 -1.061747E+08 -1.170149E+08  2.267105E+01  5.203432E+04  3.530101E+01  1.491352E-05  1.442759E-07 -3.186888E-05  5.276263E-09  1.211002E-05  6.118842E-09 -1.681109E-05  0.000000E+00  0.000000E+00  0.000000E+00  0.000000E+00  0.000000E+00  0.000000E+00  0.000000E+00                                                                                                                                                                                                                                                                                                                                                                                                                                                                                              
  6.250000E+02  1.250000E+02 -4.975000E+03 -6.994571E+07 -1.058265E+08 -1.165274E+08  3.754148E+01  1.250321E+05  4.590493E+01 -1.234535E-06  1.541975E-07 -2.404782E-05  8.737079E-09  2.909889E-05  7.956854E-09 -2.512816E-05  0.000000E+00  0.000000E+00  0.000000E+00  0.000000E+00  0.000000E+00  0.000000E+00  0.000000E+00                                                                                                                                                                                                                                                                                                                                                                                                                                                                                              
  8.750000E+02  1.250000E+02 -4.975000E+03 -7.002650E+07 -1.054067E+08 -1.158692E+08  5.471487E+01  1.296937E+05  2.962166E+01 -2.699835E-05  1.634932E-07 -8.492801E-06  1.273386E-08  3.018378E-05  5.134422E-09 -3.532766E-05  0.000000E+00  0.000000E+00  0.000000E+00  0.000000E+00  0.000000E+00  0.000000E+00  0.000000E+00                                                                                                                                                                                                                                                                                                                                                                                                                                                                                              
  1.050000E+03  1.250000E+02 -4.975000E+03 -7.007471E+07 -1.051915E+08 -1.155169E+08  6.240234E+01  6.987658E+01 -5.845793E-01 -4.137229E-05  1.671298E-07  9.456427E-07  1.452298E-08  1.626247E-08 -1.013271E-10 -4.025951E-05  0.000000E+00  0.000000E+00  0.000000E+00  0.000000E+00  0.000000E+00  0.000000E+00  0.000000E+00                                                                                                                                                                                                                                                                                                                                                                                                                                                                                              
  1.225000E+03  1.250000E+02 -4.975000E+03 -7.002654E+07 -1.054067E+08 -1.158691E+08  5.450975E+01 -1.295597E+05 -3.075967E+01 -2.700439E-05  1.633503E-07 -8.481322E-06  1.268613E-08 -3.015260E-05 -5.331676E-09 -3.532236E-05  0.000000E+00  0.000000E+00  0.000000E+00  0.000000E+00  0.000000E+00  0.000000E+00  0.000000E+00                                                                                                                                                                                                                                                                                                                                                                                                                                                                                              
  1.475000E+03  1.250000E+02 -4.975000E+03 -6.994580E+07 -1.058265E+08 -1.165271E+08  3.707590E+01 -1.249225E+05 -4.683825E+01 -1.248281E-06  1.538698E-07 -2.402166E-05  8.628723E-09 -2.907338E-05 -8.118631E-09 -2.511607E-05  0.000000E+00  0.000000E+00  0.000000E+00  0.000000E+00  0.000000E+00  0.000000E+00  0.000000E+00                                                                                                                                                                                                                                                                                                                                                                                                                                                                                              
  1.725000E+03  1.250000E+02 -4.975000E+03 -6.993822E+07 -1.061746E+08 -1.170143E+08  2.201530E+01 -5.196369E+04 -3.591250E+01  1.489412E-05  1.438120E-07 -3.183191E-05  5.123649E-09 -1.209358E-05 -6.224833E-09 -1.679398E-05  0.000000E+00  0.000000E+00  0.000000E+00  0.000000E+00  0.000000E+00  0.000000E+00  0.000000E+00                                                                                                                                                                                                                                                                                                                                                                                                                                                                                              
  1.975000E+03  1.250000E+02 -4.975000E+03 -6.994184E+07 -1.063395E+08 -1.172288E+08  1.488235E+01 -1.199604E+04 -1.187534E+01  2.160224E-05  1.380342E-07 -3.401855E-05  3.463590E-09 -2.791855E-06 -2.058392E-09 -1.227827E-05  0.000000E+00  0.000000E+00  0.000000E+00  0.000000E+00  0.000000E+00  0.000000E+00  0.000000E+00                                                                                                                                                                                                                                                                                                                                                                                                                                                                                              
  1.250000E+02  1.250000E+02 -4.725000E+03 -6.701028E+07 -1.018409E+08 -1.122749E+08  1.939057E+00  4.730858E+03  1.470320E+01  1.764727E-05  1.141865E-07 -3.287474E-05  4.512794E-10  1.101019E-06  2.548555E-09 -1.511329E-05  0.000000E+00  0.000000E+00  0.000000E+00  0.000000E+00  0.000000E+00  0.000000E+00  0.000000E+00                                                                                                                                                                                                                                                                                                                                                                                                                                                                                              
  3.750000E+02  1.250000E+02 -4.725000E+03 -6.698582E+07 -1.016829E+08 -1.120946E+08  1.047582E+01  2.691243E+04  4.491042E+01  1.314134E-05  1.211171E-07 -3.297851E-05  2.438052E-09  6.263365E-06  7.784472E-09 -1.971605E-05  0.000000E+00  0.000000E+00  0.000000E+00  0.000000E+00  0.000000E+00  0.000000E+00  0.000000E+00                                                                                                                                                                                                                                                                                                                                                                                                                                                                                              
  6.250000E+02  1.250000E+02 -4.725000E+03 -6.691827E+07 -1.013295E+08 -1.116815E+08  3.019157E+01  1.112882E+05  6.175294E+01  3.353089E-06  1.335000E-07 -3.214619E-05  7.026524E-09  2.590025E-05  1.070384E-08 -2.865960E-05  0.000000E+00  0.000000E+00  0.000000E+00  0.000000E+00  0.000000E+00  0.000000E+00  0.000000E+00                                                                                                                                                                                                                                                                                                                                                                                                                                                                                              
  8.750000E+02  1.250000E+02 -4.725000E+03 -6.688130E+07 -1.007228E+08 -1.107660E+08  5.506331E+01  2.306208E+05  4.265577E+01 -2.430459E-05  1.456548E-07 -1.166823E-05  1.281496E-08  5.367269E-05  7.393667E-09 -3.582716E-05  0.000000E+00  0.000000E+00  0.000000E+00  0.000000E+00  0.000000E+00  0.000000E+00  0.000000E+00                                                                                                                                                                                                                                                                                                                                                                                                                                                                                              
  1.050000E+03  1.250000E+02 -4.725000E+03 -6.697165E+07 -1.003883E+08 -1.101666E+08  6.692051E+01  9.838636E+01 -6.031265E-01 -4.903966E-05  1.506120E-07  7.783498E-06  1.557450E-08  2.289759E-08 -1.045419E-10 -4.110555E-05  0.000000E+00  0.000000E+00  0.000000E+00  0.000000E+00  0.000000E+00  0.000000E+00  0.000000E+00                                                                                                                                                                                                                                                                                                                                                                                                                                                                                              
  1.225000E+03  1.250000E+02 -4.725000E+03 -6.688134E+07 -1.007228E+08 -1.107658E+08  5.475622E+01 -2.304319E+05 -4.377816E+01 -2.431034E-05  1.455055E-07 -1.165568E-05  1.274349E-08 -5.362872E-05 -7.588214E-09 -3.582052E-05  0.000000E+00  0.000000E+00  0.000000E+00  0.000000E+00  0.000000E+00  0.000000E+00  0.000000E+00                                                                                                                                                                                                                                                                                                                                                                                                                                                                                              
  1.475000E+03  1.250000E+02 -4.725000E+03 -6.691835E+07 -1.013294E+08 -1.116811E+08  2.953640E+01 -1.111345E+05 -6.262484E+01  3.339952E-06  1.331711E-07 -3.211767E-05  6.874047E-09 -2.586449E-05 -1.085497E-08 -2.864455E-05  0.000000E+00  0.000000E+00  0.000000E+00  0.000000E+00  0.000000E+00  0.000000E+00  0.000000E+00                                                                                                                                                                                                                                                                                                                                                                                                                                                                                              
  1.725000E+03  1.250000E+02 -4.725000E+03 -6.698592E+07 -1.016828E+08 -1.120940E+08  9.579734E+00 -2.681459E+04 -4.548431E+01  1.312295E-05  1.206628E-07 -3.293848E-05  2.229504E-09 -6.240594E-06 -7.883948E-09 -1.969486E-05  0.000000E+00  0.000000E+00  0.000000E+00  0.000000E+00  0.000000E+00  0.000000E+00  0.000000E+00                                                                                                                                                                                                                                                                                                                                                                                                                                                                                              