Title="TREACTMECH V1.0-OMP-MPI stress-strain.tec: Total Stresses (Pa), Strains"                                                                                                                                                                                                                                                                                                                                                                                                                                                                                                                                                                                                                                                                                                                                                 
Variables= "X(m)"     "Y(m)"      "Z(m)"    "Sigma_xx"    "Sigma_yy"    "Sigma_zz"    "Sigma_yz"    "Sigma_xz"    "Sigma_xy"   "Strain_xx"   "Strain_yy"   "Strain_zz"   "Strain_yz"   "Strain_xz"   "Strain_xy"  "Vol_Strain"   "E_fail_xx"   "E_fail_yy"   "E_fail_zz"  "E_fail_yz2"  "E_fail_xz2"  "E_fail_xy2"  "E_fail_vol"                                                                                                                                                                                                                                                                                                                                                                                                                                                                                                
Zone T= "1.00000000E+11 sec" I=     9 J=    10 K=    23 F=Point
  1.250000E+02  1.250000E+02 -5.425000E+03 -7.241802E+07 -1.116215E+08 -1.262059E+08  2.385454E+00  3.991595E+03  6.980115E+00  2.843164E-05  1.358509E-07 -2.856509E-04  5.551698E-10  9.289692E-07  1.209887E-09 -2.570835E-04  0.000000E+00  0.000000E+00  0.000000E+00  0.000000E+00  0.000000E+00  0.000000E+00  0.000000E+00                                                                                                                                                                                                                                                                                                                                                                                                                                                                                              
  3.750000E+02  1.250000E+02 -5.425000E+03 -7.244785E+07 -1.114313E+08 -1.259177E+08  3.174573E+00  1.469379E+04  2.232655E+01  1.639574E-05  1.396339E-07 -2.791978E-04  7.388225E-10  3.419705E-06  3.869936E-09 -2.626625E-04  0.000000E+00  0.000000E+00  0.000000E+00  0.000000E+00  0.000000E+00  0.000000E+00  0.000000E+00                                                                                                                                                                                                                                                                                                                                                                                                                                                                                              
  6.250000E+02  1.250000E+02 -5.425000E+03 -7.251574E+07 -1.110957E+08 -1.253853E+08  5.102159E+00  2.591596E+04  2.722882E+01 -6.314502E-06  1.459868E-07 -2.656863E-04  1.187432E-09  6.031455E-06  4.719661E-09 -2.718548E-04  0.000000E+00  0.000000E+00  0.000000E+00  0.000000E+00  0.000000E+00  0.000000E+00  0.000000E+00                                                                                                                                                                                                                                                                                                                                                                                                                                                                                              
  8.750000E+02  1.250000E+02 -5.425000E+03 -7.259667E+07 -1.107570E+08 -1.248325E+08  7.489324E+00  2.012483E+04  1.658584E+01 -3.036610E-05  1.515904E-07 -2.507022E-04  1.743000E-09  4.683678E-06  2.874879E-09 -2.809167E-04  0.000000E+00  0.000000E+00  0.000000E+00  0.000000E+00  0.000000E+00  0.000000E+00  0.000000E+00                                                                                                                                                                                                                                                                                                                                                                                                                                                                                              
  1.050000E+03  1.250000E+02 -5.425000E+03 -7.263205E+07 -1.106119E+08 -1.245948E+08  8.555048E+00 -1.566125E-02 -5.668501E-03 -4.073446E-05  1.536990E-07 -2.442125E-04  1.991028E-09 -3.644864E-12 -9.825403E-13 -2.847932E-04  0.000000E+00  0.000000E+00  0.000000E+00  0.000000E+00  0.000000E+00  0.000000E+00  0.000000E+00                                                                                                                                                                                                                                                                                                                                                                                                                                                                                              
  1.225000E+03  1.250000E+02 -5.425000E+03 -7.259667E+07 -1.107570E+08 -1.248325E+08  7.498517E+00 -2.012489E+04 -1.661195E+01 -3.036607E-05  1.515900E-07 -2.507022E-04  1.745140E-09 -4.683693E-06 -2.879404E-09 -2.809167E-04  0.000000E+00  0.000000E+00  0.000000E+00  0.000000E+00  0.000000E+00  0.000000E+00  0.000000E+00                                                                                                                                                                                                                                                                                                                                                                                                                                                                                              
  1.475000E+03  1.250000E+02 -5.425000E+03 -7.251574E+07 -1.110957E+08 -1.253853E+08  5.114738E+00 -2.591600E+04 -2.723393E+01 -6.314447E-06  1.459883E-07 -2.656864E-04  1.190360E-09 -6.031465E-06 -4.720548E-09 -2.718548E-04  0.000000E+00  0.000000E+00  0.000000E+00  0.000000E+00  0.000000E+00  0.000000E+00  0.000000E+00                                                                                                                                                                                                                                                                                                                                                                                                                                                                                              
  1.725000E+03  1.250000E+02 -5.425000E+03 -7.244785E+07 -1.114313E+08 -1.259177E+08  3.184129E+00 -1.469382E+04 -2.232750E+01  1.639581E-05  1.396398E-07 -2.791979E-04  7.410467E-10 -3.419712E-06 -3.870100E-09 -2.626625E-04  0.000000E+00  0.000000E+00  0.000000E+00  0.000000E+00  0.000000E+00  0.000000E+00  0.000000E+00                                                                                                                                                                                                                                                                                                                                                                                                                                                                                              
  1.975000E+03  1.250000E+02 -5.425000E+03 -7.241802E+07 -1.116215E+08 -1.262059E+08  2.394573E+00 -3.991609E+03 -6.983105E+00  2.843172E-05  1.358587E-07 -2.856510E-04  5.572922E-10 -9.289725E-07 -1.210405E-09 -2.570834E-04  0.000000E+00  0.000000E+00  0.000000E+00  0.000000E+00  0.000000E+00  0.000000E+00  0.000000E+00                                                                                                                                                                                                                                                                                                                                                                                                                                                                                              
  1.250000E+02  1.250000E+02 -5.225000E+03 -7.002279E+07 -1.080199E+08 -1.222549E+08  1.106975E+01  1.288798E+04  7.794158E+00  2.864313E-05  1.293575E-07 -2.857920E-04  2.576277E-09  2.999436E-06  1.350987E-09 -2.570195E-04  0.000000E+00  0.000000E+00  0.000000E+00  0.000000E+00  0.000000E+00  0.000000E+00  0.000000E+00                                                                                                                                                                                                                                                                                                                                                                                                                                                                                              
  3.750000E+02  1.250000E+02 -5.225000E+03 -7.004283E+07 -1.078256E+08 -1.219771E+08  1.362223E+01  4.810904E+04  2.466140E+01  1.737017E-05  1.335462E-07 -2.806627E-04  3.170319E-09  1.119648E-05  4.274643E-09 -2.631590E-04  0.000000E+00  0.000000E+00  0.000000E+00  0.000000E+00  0.000000E+00  0.000000E+00  0.000000E+00                                                                                                                                                                                                                                                                                                                                                                                                                                                                                              
  6.250000E+02  1.250000E+02 -5.225000E+03 -7.009875E+07 -1.074620E+08 -1.214326E+08  1.939930E+01  8.850518E+04  3.110515E+01 -5.434230E-06  1.407081E-07 -2.689251E-04  4.514824E-09  2.059793E-05  5.391559E-09 -2.742186E-04  0.000000E+00  0.000000E+00  0.000000E+00  0.000000E+00  0.000000E+00  0.000000E+00  0.000000E+00                                                                                                                                                                                                                                                                                                                                                                                                                                                                                              
  8.750000E+02  1.250000E+02 -5.225000E+03 -7.017870E+07 -1.070692E+08 -1.208224E+08  2.626716E+01  7.270079E+04  1.940956E+01 -3.180550E-05  1.471891E-07 -2.542987E-04  6.113191E-09  1.691975E-05  3.364324E-09 -2.859570E-04  0.000000E+00  0.000000E+00  0.000000E+00  0.000000E+00  0.000000E+00  0.000000E+00  0.000000E+00                                                                                                                                                                                                                                                                                                                                                                                                                                                                                              
  1.050000E+03  1.250000E+02 -5.225000E+03 -7.021689E+07 -1.068930E+08 -1.205446E+08  2.934787E+01  2.322705E-02 -1.000176E-03 -4.386844E-05  1.496705E-07 -2.473858E-04  6.830170E-09  5.405661E-12 -1.733638E-13 -2.911045E-04  0.000000E+00  0.000000E+00  0.000000E+00  0.000000E+00  0.000000E+00  0.000000E+00  0.000000E+00                                                                                                                                                                                                                                                                                                                                                                                                                                                                                              
  1.225000E+03  1.250000E+02 -5.225000E+03 -7.017870E+07 -1.070692E+08 -1.208224E+08  2.627555E+01 -7.270080E+04 -1.942524E+01 -3.180548E-05  1.471902E-07 -2.542987E-04  6.115143E-09 -1.691975E-05 -3.367042E-09 -2.859570E-04  0.000000E+00  0.000000E+00  0.000000E+00  0.000000E+00  0.000000E+00  0.000000E+00  0.000000E+00                                                                                                                                                                                                                                                                                                                                                                                                                                                                                              
  1.475000E+03  1.250000E+02 -5.225000E+03 -7.009875E+07 -1.074620E+08 -1.214326E+08  1.941312E+01 -8.850513E+04 -3.110589E+01 -5.434179E-06  1.407118E-07 -2.689252E-04  4.518041E-09 -2.059792E-05 -5.391688E-09 -2.742186E-04  0.000000E+00  0.000000E+00  0.000000E+00  0.000000E+00  0.000000E+00  0.000000E+00  0.000000E+00                                                                                                                                                                                                                                                                                                                                                                                                                                                                                              
  1.725000E+03  1.250000E+02 -5.225000E+03 -7.004283E+07 -1.078256E+08 -1.219771E+08  1.363531E+01 -4.810901E+04 -2.465724E+01  1.737024E-05  1.335538E-07 -2.806627E-04  3.173363E-09 -1.119648E-05 -4.273922E-09 -2.631589E-04  0.000000E+00  0.000000E+00  0.000000E+00  0.000000E+00  0.000000E+00  0.000000E+00  0.000000E+00                                                                                                                                                                                                                                                                                                                                                                                                                                                                                              
  1.975000E+03  1.250000E+02 -5.225000E+03 -7.002279E+07 -1.080199E+08 -1.222549E+08  1.108242E+01 -1.288797E+04 -7.793706E+00  2.864321E-05  1.293672E-07 -2.857921E-04  2.579226E-09 -2.999435E-06 -1.350909E-09 -2.570195E-04  0.000000E+00  0.000000E+00  0.000000E+00  0.000000E+00  0.000000E+00  0.000000E+00  0.000000E+00                                                                                                                                                                                                                                                                                                                                                                                                                                                                                              
  1.250000E+02  1.250000E+02 -4.975000E+03 -6.704925E+07 -1.035234E+08 -1.173239E+08  2.155761E+01  1.678379E+04  9.623042E+00  2.820462E-05  1.148065E-07 -2.863515E-04  5.017131E-09  3.906114E-06  1.667994E-09 -2.580321E-04  0.000000E+00  0.000000E+00  0.000000E+00  0.000000E+00  0.000000E+00  0.000000E+00  0.000000E+00                                                                                                                                                                                                                                                                                                                                                                                                                                                                                              
  3.750000E+02  1.250000E+02 -4.975000E+03 -6.704646E+07 -1.033316E+08 -1.170756E+08  2.566165E+01  6.865705E+04  2.986738E+01  1.909842E-05  1.198087E-07 -2.835590E-04  5.972270E-09  1.597865E-05  5.177012E-09 -2.643408E-04  0.000000E+00  0.000000E+00  0.000000E+00  0.000000E+00  0.000000E+00  0.000000E+00  0.000000E+00                                                                                                                                                                                                                                                                                                                                                                                                                                                                                              
  6.250000E+02  1.250000E+02 -4.975000E+03 -6.706440E+07 -1.029348E+08 -1.165186E+08  3.483186E+01  1.555699E+05  3.915582E+01 -2.164335E-06  1.285570E-07 -2.739209E-04  8.106466E-09  3.620598E-05  6.787009E-09 -2.759566E-04  0.000000E+00  0.000000E+00  0.000000E+00  0.000000E+00  0.000000E+00  0.000000E+00  0.000000E+00                                                                                                                                                                                                                                                                                                                                                                                                                                                                                              
  8.750000E+02  1.250000E+02 -4.975000E+03 -6.715852E+07 -1.024513E+08 -1.157532E+08  4.600875E+01  1.616229E+05  2.540315E+01 -3.460133E-05  1.367700E-07 -2.545963E-04  1.070768E-08  3.761470E-05  4.403212E-09 -2.890609E-04  0.000000E+00  0.000000E+00  0.000000E+00  0.000000E+00  0.000000E+00  0.000000E+00  0.000000E+00                                                                                                                                                                                                                                                                                                                                                                                                                                                                                              
  1.050000E+03  1.250000E+02 -4.975000E+03 -6.723209E+07 -1.022187E+08 -1.153550E+08  5.119818E+01  6.302720E-03  4.457662E-03 -5.268730E-05  1.400033E-07 -2.426995E-04  1.191542E-08  1.466841E-12  7.726614E-13 -2.952468E-04  0.000000E+00  0.000000E+00  0.000000E+00  0.000000E+00  0.000000E+00  0.000000E+00  0.000000E+00                                                                                                                                                                                                                                                                                                                                                                                                                                                                                              
  1.225000E+03  1.250000E+02 -4.975000E+03 -6.715852E+07 -1.024513E+08 -1.157532E+08  4.601567E+01 -1.616229E+05 -2.540537E+01 -3.460131E-05  1.367722E-07 -2.545963E-04  1.070929E-08 -3.761472E-05 -4.403598E-09 -2.890609E-04  0.000000E+00  0.000000E+00  0.000000E+00  0.000000E+00  0.000000E+00  0.000000E+00  0.000000E+00                                                                                                                                                                                                                                                                                                                                                                                                                                                                                              
  1.475000E+03  1.250000E+02 -4.975000E+03 -6.706440E+07 -1.029348E+08 -1.165186E+08  3.484729E+01 -1.555699E+05 -3.915060E+01 -2.164293E-06  1.285627E-07 -2.739209E-04  8.110057E-09 -3.620598E-05 -6.786104E-09 -2.759566E-04  0.000000E+00  0.000000E+00  0.000000E+00  0.000000E+00  0.000000E+00  0.000000E+00  0.000000E+00                                                                                                                                                                                                                                                                                                                                                                                                                                                                                              
  1.725000E+03  1.250000E+02 -4.975000E+03 -6.704646E+07 -1.033316E+08 -1.170756E+08  2.568044E+01 -6.865706E+04 -2.986052E+01  1.909847E-05  1.198183E-07 -2.835591E-04  5.976643E-09 -1.597865E-05 -5.175823E-09 -2.643408E-04  0.000000E+00  0.000000E+00  0.000000E+00  0.000000E+00  0.000000E+00  0.000000E+00  0.000000E+00                                                                                                                                                                                                                                                                                                                                                                                                                                                                                              
  1.975000E+03  1.250000E+02 -4.975000E+03 -6.704925E+07 -1.035234E+08 -1.173239E+08  2.157639E+01 -1.678379E+04 -9.621695E+00  2.820468E-05  1.148181E-07 -2.863516E-04  5.021501E-09 -3.906115E-06 -1.667760E-09 -2.580321E-04  0.000000E+00  0.000000E+00  0.000000E+00  0.000000E+00  0.000000E+00  0.000000E+00  0.000000E+00                                                                                                                                                                                                                                                                                                                                                                                                                                                                                              
  1.250000E+02  1.250000E+02 -4.725000E+03 -6.413242E+07 -9.904308E+07 -1.123791E+08  2.813359E+01  9.762880E+03  1.132165E+01  2.456768E-05  9.382489E-08 -2.844001E-04  6.547568E-09  2.272128E-06  1.962419E-09 -2.597386E-04  0.000000E+00  0.000000E+00  0.000000E+00  0.000000E+00  0.000000E+00  0.000000E+00  0.000000E+00                                                                                                                                                                                                                                                                                                                                                                                                                                                                                              
  3.750000E+02  1.250000E+02 -4.725000E+03 -6.410739E+07 -9.886103E+07 -1.121742E+08  3.169850E+01  4.370485E+04  3.511192E+01  1.801935E-05  9.947966E-08 -2.844641E-04  7.377234E-09  1.017149E-05  6.086067E-09 -2.663453E-04  0.000000E+00  0.000000E+00  0.000000E+00  0.000000E+00  0.000000E+00  0.000000E+00  0.000000E+00                                                                                                                                                                                                                                                                                                                                                                                                                                                                                              
  6.250000E+02  1.250000E+02 -4.725000E+03 -6.403247E+07 -9.845387E+07 -1.116917E+08  4.082502E+01  1.577688E+05  4.806405E+01  4.212966E-06  1.095083E-07 -2.822750E-04  9.501261E-09  3.671774E-05  8.331101E-09 -2.779525E-04  0.000000E+00  0.000000E+00  0.000000E+00  0.000000E+00  0.000000E+00  0.000000E+00  0.000000E+00                                                                                                                                                                                                                                                                                                                                                                                                                                                                                              
  8.750000E+02  1.250000E+02 -4.725000E+03 -6.406846E+07 -9.779716E+07 -1.106253E+08  5.351543E+01  3.088644E+05  3.305945E+01 -3.410587E-05  1.192560E-07 -2.530586E-04  1.245472E-08  7.188242E-05  5.730305E-09 -2.870452E-04  0.000000E+00  0.000000E+00  0.000000E+00  0.000000E+00  0.000000E+00  0.000000E+00  0.000000E+00                                                                                                                                                                                                                                                                                                                                                                                                                                                                                              
  1.050000E+03  1.250000E+02 -4.725000E+03 -6.415997E+07 -9.741040E+07 -1.098893E+08  6.002184E+01 -5.532276E-03  8.118944E-03 -6.347097E-05  1.232334E-07 -2.262971E-04  1.396896E-08 -1.287534E-12  1.407284E-12 -2.896449E-04  0.000000E+00  0.000000E+00  0.000000E+00  0.000000E+00  0.000000E+00  0.000000E+00  0.000000E+00                                                                                                                                                                                                                                                                                                                                                                                                                                                                                              
  1.225000E+03  1.250000E+02 -4.725000E+03 -6.406846E+07 -9.779716E+07 -1.106253E+08  5.352297E+01 -3.088645E+05 -3.304983E+01 -3.410586E-05  1.192593E-07 -2.530586E-04  1.245647E-08 -7.188245E-05 -5.728638E-09 -2.870452E-04  0.000000E+00  0.000000E+00  0.000000E+00  0.000000E+00  0.000000E+00  0.000000E+00  0.000000E+00                                                                                                                                                                                                                                                                                                                                                                                                                                                                                              
  1.475000E+03  1.250000E+02 -4.725000E+03 -6.403247E+07 -9.845387E+07 -1.116917E+08  4.084369E+01 -1.577688E+05 -4.805324E+01  4.212996E-06  1.095161E-07 -2.822750E-04  9.505606E-09 -3.671775E-05 -8.329228E-09 -2.779525E-04  0.000000E+00  0.000000E+00  0.000000E+00  0.000000E+00  0.000000E+00  0.000000E+00  0.000000E+00                                                                                                                                                                                                                                                                                                                                                                                                                                                                                              
  1.725000E+03  1.250000E+02 -4.725000E+03 -6.410739E+07 -9.886103E+07 -1.121742E+08  3.172284E+01 -4.370488E+04 -3.510391E+01  1.801939E-05  9.949146E-08 -2.844642E-04  7.382900E-09 -1.017150E-05 -6.084678E-09 -2.663453E-04  0.000000E+00  0.000000E+00  0.000000E+00  0.000000E+00  0.000000E+00  0.000000E+00  0.000000E+00                                                                                                                                                                                                                                                                                                                                                                                                                                                                                              