Title="TOUGHREACT V3.30-OMP flowdata.tec: P,T,SAT & Other Variables"                                                                                                                                                                                                                                                                                                                                                                                                                                                                                                                                                                                                                                                                                                                                                            
Variables= "X(m)"     "Y(m)"      "Z(m)"       "P(Pa)"        "T(C)"      "SatGas"      "SatLiq"          "X1"          "X2"    "Pcap(Pa)"  "DGas_kg/m3"  "DLiq_kg/m3"    "Porosity"  "Perm_X(m2)"  "Perm_Y(m2)"  "Perm_Z(m2)"    "Krel_Gas"    "Krel_Liq"                                                                                                                                                                                                                                                                                                                                                                                                                                                                                                                                                                      
Zone T= "1.00000000E+07 sec" I=     7 J=     6 K=    23 F=Point
  2.500000E+02  2.500000E+02 -5.425000E+03  1.072496E+08  2.991571E+01  0.000000E+00  1.000000E+00  1.000000E+00  0.000000E+00  0.000000E+00  3.023007E-02  1.038829E+03  2.000021E-01  1.100000E-17  1.100000E-17  1.100000E-17  0.000000E+00  1.000000E+00                                                                                                                                                                                                                                                                                                                                                                                                                                                                                                                                                                    
  7.500000E+02  2.500000E+02 -5.425000E+03  1.072496E+08  2.991571E+01  0.000000E+00  1.000000E+00  1.000000E+00  0.000000E+00  0.000000E+00  3.023007E-02  1.038829E+03  2.000021E-01  1.100000E-17  1.100000E-17  1.100000E-17  0.000000E+00  1.000000E+00                                                                                                                                                                                                                                                                                                                                                                                                                                                                                                                                                                    
  1.250000E+03  2.500000E+02 -5.425000E+03  1.072496E+08  2.991571E+01  0.000000E+00  1.000000E+00  1.000000E+00  0.000000E+00  0.000000E+00  3.023007E-02  1.038829E+03  2.000021E-01  1.100000E-17  1.100000E-17  1.100000E-17  0.000000E+00  1.000000E+00                                                                                                                                                                                                                                                                                                                                                                                                                                                                                                                                                                    
  1.750000E+03  2.500000E+02 -5.425000E+03  1.072496E+08  2.991571E+01  0.000000E+00  1.000000E+00  1.000000E+00  0.000000E+00  0.000000E+00  3.023007E-02  1.038829E+03  2.000021E-01  1.100000E-17  1.100000E-17  1.100000E-17  0.000000E+00  1.000000E+00                                                                                                                                                                                                                                                                                                                                                                                                                                                                                                                                                                    
  2.250000E+03  2.500000E+02 -5.425000E+03  1.072496E+08  2.991571E+01  0.000000E+00  1.000000E+00  1.000000E+00  0.000000E+00  0.000000E+00  3.023007E-02  1.038829E+03  2.000021E-01  1.100000E-17  1.100000E-17  1.100000E-17  0.000000E+00  1.000000E+00                                                                                                                                                                                                                                                                                                                                                                                                                                                                                                                                                                    
  2.550000E+03  2.500000E+02 -5.425000E+03  1.072496E+08  2.991571E+01  0.000000E+00  1.000000E+00  1.000000E+00  0.000000E+00  0.000000E+00  3.023007E-02  1.038829E+03  2.000021E-01  1.100000E-17  1.100000E-17  1.100000E-17  0.000000E+00  1.000000E+00                                                                                                                                                                                                                                                                                                                                                                                                                                                                                                                                                                    
  2.850000E+03  2.500000E+02 -5.425000E+03  1.072496E+08  2.991571E+01  0.000000E+00  1.000000E+00  1.000000E+00  0.000000E+00  0.000000E+00  3.023007E-02  1.038829E+03  2.000021E-01  1.100000E-17  1.100000E-17  1.100000E-17  0.000000E+00  1.000000E+00                                                                                                                                                                                                                                                                                                                                                                                                                                                                                                                                                                    
  2.500000E+02  2.500000E+02 -5.225000E+03  1.052376E+08  2.958751E+01  0.000000E+00  1.000000E+00  1.000000E+00  0.000000E+00  0.000000E+00  2.969637E-02  1.038218E+03  2.000000E-01  1.100000E-17  1.100000E-17  1.100000E-17  0.000000E+00  1.000000E+00                                                                                                                                                                                                                                                                                                                                                                                                                                                                                                                                                                    
  7.500000E+02  2.500000E+02 -5.225000E+03  1.052376E+08  2.958751E+01  0.000000E+00  1.000000E+00  1.000000E+00  0.000000E+00  0.000000E+00  2.969637E-02  1.038218E+03  2.000000E-01  1.100000E-17  1.100000E-17  1.100000E-17  0.000000E+00  1.000000E+00                                                                                                                                                                                                                                                                                                                                                                                                                                                                                                                                                                    
  1.250000E+03  2.500000E+02 -5.225000E+03  1.052376E+08  2.958751E+01  0.000000E+00  1.000000E+00  1.000000E+00  0.000000E+00  0.000000E+00  2.969637E-02  1.038218E+03  2.000000E-01  1.100000E-17  1.100000E-17  1.100000E-17  0.000000E+00  1.000000E+00                                                                                                                                                                                                                                                                                                                                                                                                                                                                                                                                                                    
  1.750000E+03  2.500000E+02 -5.225000E+03  1.052376E+08  2.958751E+01  0.000000E+00  1.000000E+00  1.000000E+00  0.000000E+00  0.000000E+00  2.969637E-02  1.038218E+03  2.000000E-01  1.100000E-17  1.100000E-17  1.100000E-17  0.000000E+00  1.000000E+00                                                                                                                                                                                                                                                                                                                                                                                                                                                                                                                                                                    
  2.250000E+03  2.500000E+02 -5.225000E+03  1.052376E+08  2.958751E+01  0.000000E+00  1.000000E+00  1.000000E+00  0.000000E+00  0.000000E+00  2.969637E-02  1.038218E+03  2.000000E-01  1.100000E-17  1.100000E-17  1.100000E-17  0.000000E+00  1.000000E+00                                                                                                                                                                                                                                                                                                                                                                                                                                                                                                                                                                    
  2.550000E+03  2.500000E+02 -5.225000E+03  1.052376E+08  2.958751E+01  0.000000E+00  1.000000E+00  1.000000E+00  0.000000E+00  0.000000E+00  2.969637E-02  1.038218E+03  2.000000E-01  1.100000E-17  1.100000E-17  1.100000E-17  0.000000E+00  1.000000E+00                                                                                                                                                                                                                                                                                                                                                                                                                                                                                                                                                                    
  2.850000E+03  2.500000E+02 -5.225000E+03  1.052376E+08  2.958751E+01  0.000000E+00  1.000000E+00  1.000000E+00  0.000000E+00  0.000000E+00  2.969637E-02  1.038218E+03  2.000000E-01  1.100000E-17  1.100000E-17  1.100000E-17  0.000000E+00  1.000000E+00                                                                                                                                                                                                                                                                                                                                                                                                                                                                                                                                                                    
  2.500000E+02  2.500000E+02 -4.975000E+03  1.027264E+08  2.921250E+01  0.000000E+00  1.000000E+00  1.000000E+00  0.000000E+00  0.000000E+00  2.909647E-02  1.037436E+03  2.000000E-01  1.100000E-17  1.100000E-17  1.100000E-17  0.000000E+00  1.000000E+00                                                                                                                                                                                                                                                                                                                                                                                                                                                                                                                                                                    
  7.500000E+02  2.500000E+02 -4.975000E+03  1.027264E+08  2.921250E+01  0.000000E+00  1.000000E+00  1.000000E+00  0.000000E+00  0.000000E+00  2.909647E-02  1.037436E+03  2.000000E-01  1.100000E-17  1.100000E-17  1.100000E-17  0.000000E+00  1.000000E+00                                                                                                                                                                                                                                                                                                                                                                                                                                                                                                                                                                    
  1.250000E+03  2.500000E+02 -4.975000E+03  1.027264E+08  2.921250E+01  0.000000E+00  1.000000E+00  1.000000E+00  0.000000E+00  0.000000E+00  2.909647E-02  1.037436E+03  2.000000E-01  1.100000E-17  1.100000E-17  1.100000E-17  0.000000E+00  1.000000E+00                                                                                                                                                                                                                                                                                                                                                                                                                                                                                                                                                                    
  1.750000E+03  2.500000E+02 -4.975000E+03  1.027264E+08  2.921250E+01  0.000000E+00  1.000000E+00  1.000000E+00  0.000000E+00  0.000000E+00  2.909647E-02  1.037436E+03  2.000000E-01  1.100000E-17  1.100000E-17  1.100000E-17  0.000000E+00  1.000000E+00                                                                                                                                                                                                                                                                                                                                                                                                                                                                                                                                                                    
  2.250000E+03  2.500000E+02 -4.975000E+03  1.027264E+08  2.921250E+01  0.000000E+00  1.000000E+00  1.000000E+00  0.000000E+00  0.000000E+00  2.909647E-02  1.037436E+03  2.000000E-01  1.100000E-17  1.100000E-17  1.100000E-17  0.000000E+00  1.000000E+00                                                                                                                                                                                                                                                                                                                                                                                                                                                                                                                                                                    
  2.550000E+03  2.500000E+02 -4.975000E+03  1.027264E+08  2.921250E+01  0.000000E+00  1.000000E+00  1.000000E+00  0.000000E+00  0.000000E+00  2.909647E-02  1.037436E+03  2.000000E-01  1.100000E-17  1.100000E-17  1.100000E-17  0.000000E+00  1.000000E+00                                                                                                                                                                                                                                                                                                                                                                                                                                                                                                                                                                    
  2.850000E+03  2.500000E+02 -4.975000E+03  1.027264E+08  2.921250E+01  0.000000E+00  1.000000E+00  1.000000E+00  0.000000E+00  0.000000E+00  2.909647E-02  1.037436E+03  2.000000E-01  1.100000E-17  1.100000E-17  1.100000E-17  0.000000E+00  1.000000E+00                                                                                                                                                                                                                                                                                                                                                                                                                                                                                                                                                                    
  2.500000E+02  2.500000E+02 -4.725000E+03  1.002157E+08  2.883752E+01  0.000000E+00  1.000000E+00  1.000000E+00  0.000000E+00  0.000000E+00  2.850705E-02  1.036650E+03  2.000004E-01  1.100000E-17  1.100000E-17  1.100000E-17  0.000000E+00  1.000000E+00                                                                                                                                                                                                                                                                                                                                                                                                                                                                                                                                                                    
  7.500000E+02  2.500000E+02 -4.725000E+03  1.002157E+08  2.883752E+01  0.000000E+00  1.000000E+00  1.000000E+00  0.000000E+00  0.000000E+00  2.850705E-02  1.036650E+03  2.000004E-01  1.100000E-17  1.100000E-17  1.100000E-17  0.000000E+00  1.000000E+00                                                                                                                                                                                                                                                                                                                                                                                                                                                                                                                                                                    
  1.250000E+03  2.500000E+02 -4.725000E+03  1.002157E+08  2.883752E+01  0.000000E+00  1.000000E+00  1.000000E+00  0.000000E+00  0.000000E+00  2.850705E-02  1.036650E+03  2.000004E-01  1.100000E-17  1.100000E-17  1.100000E-17  0.000000E+00  1.000000E+00                                                                                                                                                                                                                                                                                                                                                                                                                                                                                                                                                                    
  1.750000E+03  2.500000E+02 -4.725000E+03  1.002157E+08  2.883752E+01  0.000000E+00  1.000000E+00  1.000000E+00  0.000000E+00  0.000000E+00  2.850705E-02  1.036650E+03  2.000004E-01  1.100000E-17  1.100000E-17  1.100000E-17  0.000000E+00  1.000000E+00                                                                                                                                                                                                                                                                                                                                                                                                                                                                                                                                                                    
  2.250000E+03  2.500000E+02 -4.725000E+03  1.002157E+08  2.883752E+01  0.000000E+00  1.000000E+00  1.000000E+00  0.000000E+00  0.000000E+00  2.850705E-02  1.036650E+03  2.000004E-01  1.100000E-17  1.100000E-17  1.100000E-17  0.000000E+00  1.000000E+00                                                                                                                                                                                                                                                                                                                                                                                                                                                                                                                                                                    
  2.550000E+03  2.500000E+02 -4.725000E+03  1.002157E+08  2.883752E+01  0.000000E+00  1.000000E+00  1.000000E+00  0.000000E+00  0.000000E+00  2.850705E-02  1.036650E+03  2.000004E-01  1.100000E-17  1.100000E-17  1.100000E-17  0.000000E+00  1.000000E+00                                                                                                                                                                                                                                                                                                                                                                                                                                                                                                                                                                    
  2.850000E+03  2.500000E+02 -4.725000E+03  1.002157E+08  2.883752E+01  0.000000E+00  1.000000E+00  1.000000E+00  0.000000E+00  0.000000E+00  2.850705E-02  1.036650E+03  2.000004E-01  1.100000E-17  1.100000E-17  1.100000E-17  0.000000E+00  1.000000E+00                                                                                                                                                                                                                                                                                                                                                                                                                                                                                                                                                                    
  2.500000E+02  2.500000E+02 -4.550000E+03  9.857576E+07  2.857852E+01  0.000000E+00  1.000000E+00  1.000000E+00  0.000000E+00  0.000000E+00  2.810595E-02  1.036138E+03  2.000759E-01  1.100000E-13  1.100000E-13  1.100000E-15  0.000000E+00  1.000000E+00                                                                                                                                                                                                                                                                                                                                                                                                                                                                                                                                                                    
  7.500000E+02  2.500000E+02 -4.550000E+03  9.857576E+07  2.857852E+01  0.000000E+00  1.000000E+00  1.000000E+00  0.000000E+00  0.000000E+00  2.810595E-02  1.036138E+03  2.000759E-01  1.100000E-13  1.100000E-13  1.100000E-15  0.000000E+00  1.000000E+00                                                                                                                                                                                                                                                                                                                                                                                                                                                                                                                                                                    
  1.250000E+03  2.500000E+02 -4.550000E+03  9.857576E+07  2.857852E+01  0.000000E+00  1.000000E+00  1.000000E+00  0.000000E+00  0.000000E+00  2.810595E-02  1.036138E+03  2.000759E-01  1.100000E-13  1.100000E-13  1.100000E-15  0.000000E+00  1.000000E+00                                                                                                                                                                                                                                                                                                                                                                                                                                                                                                                                                                    
  1.750000E+03  2.500000E+02 -4.550000E+03  9.857576E+07  2.857852E+01  0.000000E+00  1.000000E+00  1.000000E+00  0.000000E+00  0.000000E+00  2.810595E-02  1.036138E+03  2.000759E-01  1.100000E-13  1.100000E-13  1.100000E-15  0.000000E+00  1.000000E+00                                                                                                                                                                                                                                                                                                                                                                                                                                                                                                                                                                    
  2.250000E+03  2.500000E+02 -4.550000E+03  9.857576E+07  2.857852E+01  0.000000E+00  1.000000E+00  1.000000E+00  0.000000E+00  0.000000E+00  2.810595E-02  1.036138E+03  2.000759E-01  1.100000E-13  1.100000E-13  1.100000E-15  0.000000E+00  1.000000E+00                                                                                                                                                                                                                                                                                                                                                                                                                                                                                                                                                                    
  2.550000E+03  2.500000E+02 -4.550000E+03  9.857576E+07  2.857852E+01  0.000000E+00  1.000000E+00  1.000000E+00  0.000000E+00  0.000000E+00  2.810595E-02  1.036138E+03  2.000759E-01  1.100000E-13  1.100000E-13  1.100000E-15  0.000000E+00  1.000000E+00                                                                                                                                                                                                                                                                                                                                                                                                                                                                                                                                                                    
  2.850000E+03  2.500000E+02 -4.550000E+03  9.857576E+07  2.857852E+01  0.000000E+00  1.000000E+00  1.000000E+00  0.000000E+00  0.000000E+00  2.810595E-02  1.036138E+03  2.000759E-01  1.100000E-13  1.100000E-13  1.100000E-15  0.000000E+00  1.000000E+00                                                                                                                                                                                                                                                                                                                                                                                                                                                                                                                                                                    