MESH_mreactTitle="TOUGHREACT V3.30-OMP: Mineral Abundances(Total or Changes) and/or Exchanged Species: Change in volume fraction"                                                                                                                                                                                                                                                                                                                                                                                                                                                                                                                                                                                                                                                                                               
Variables= "X(m)"   "Y(m)"   "Z(m)"       "T(C)"   "Porosity"  "Poros_Chg" "Permx(m^2)"     "Kx/Kx0" "Permz(m^2)"     "Kz/Kz0" "quartz(alpha"     "dolomite"    "kaolinite"       "barite"                                                                                                                                                                                                                                                                                                                                                                                                                                                                                                                                                                                                                                      
Zone T= "3.16887907E+03 yr" I=      9 J=     10 K=     24 F=Point 
  125.0000     125.0000   -5425.0000  165.862  0.19722 -2.78424E-03  1.10000E-17  1.0000E+00  1.10000E-17  1.0000E+00 -1.1503E-05 -1.0804E-06 -2.4269E-07 -1.3582E-07                                                                                                                                                                                                                                                                                                                                                                                                                                                                                                                                                                                                                                                        
  375.0000     125.0000   -5425.0000  159.039  0.19721 -2.79315E-03  1.10000E-17  1.0000E+00  1.10000E-17  1.0000E+00 -1.0525E-05 -1.0987E-06 -2.1083E-07 -1.4183E-07                                                                                                                                                                                                                                                                                                                                                                                                                                                                                                                                                                                                                                                        
  625.0000     125.0000   -5425.0000  145.449  0.19719 -2.80850E-03  1.10000E-17  1.0000E+00  1.10000E-17  1.0000E+00 -8.7847E-06 -1.1343E-06 -1.5897E-07 -1.5221E-07                                                                                                                                                                                                                                                                                                                                                                                                                                                                                                                                                                                                                                                        
  875.0000     125.0000   -5425.0000  126.215  0.19718 -2.82291E-03  1.10000E-17  1.0000E+00  1.10000E-17  1.0000E+00 -6.6286E-06 -1.1782E-06 -1.0090E-07 -1.6335E-07                                                                                                                                                                                                                                                                                                                                                                                                                                                                                                                                                                                                                                                        
 1050.0000     125.0000   -5425.0000  110.888  0.29598 -4.01766E-03  1.10000E-10  1.0000E+00  1.10000E-10  1.0000E+00 -2.6653E-04  8.0143E-07 -6.0699E-06  8.1139E-08                                                                                                                                                                                                                                                                                                                                                                                                                                                                                                                                                                                                                                                        
 1225.0000     125.0000   -5425.0000  126.215  0.19718 -2.82291E-03  1.10000E-17  1.0000E+00  1.10000E-17  1.0000E+00 -6.6286E-06 -1.1782E-06 -1.0090E-07 -1.6335E-07                                                                                                                                                                                                                                                                                                                                                                                                                                                                                                                                                                                                                                                        
 1475.0000     125.0000   -5425.0000  145.449  0.19719 -2.80850E-03  1.10000E-17  1.0000E+00  1.10000E-17  1.0000E+00 -8.7847E-06 -1.1343E-06 -1.5897E-07 -1.5221E-07                                                                                                                                                                                                                                                                                                                                                                                                                                                                                                                                                                                                                                                        
 1725.0000     125.0000   -5425.0000  159.039  0.19721 -2.79315E-03  1.10000E-17  1.0000E+00  1.10000E-17  1.0000E+00 -1.0525E-05 -1.0987E-06 -2.1083E-07 -1.4183E-07                                                                                                                                                                                                                                                                                                                                                                                                                                                                                                                                                                                                                                                        
 1975.0000     125.0000   -5425.0000  165.862  0.19722 -2.78424E-03  1.10000E-17  1.0000E+00  1.10000E-17  1.0000E+00 -1.1503E-05 -1.0804E-06 -2.4269E-07 -1.3582E-07                                                                                                                                                                                                                                                                                                                                                                                                                                                                                                                                                                                                                                                        
  125.0000     125.0000   -5225.0000  163.059  0.19735 -2.64765E-03  1.10000E-17  1.0000E+00  1.10000E-17  1.0000E+00 -1.1198E-05 -1.0987E-06 -2.3516E-07 -1.3948E-07                                                                                                                                                                                                                                                                                                                                                                                                                                                                                                                                                                                                                                                        
  375.0000     125.0000   -5225.0000  156.581  0.19734 -2.66164E-03  1.10000E-17  1.0000E+00  1.10000E-17  1.0000E+00 -1.0272E-05 -1.1168E-06 -2.0571E-07 -1.4519E-07                                                                                                                                                                                                                                                                                                                                                                                                                                                                                                                                                                                                                                                        
  625.0000     125.0000   -5225.0000  143.695  0.19731 -2.68694E-03  1.10000E-17  1.0000E+00  1.10000E-17  1.0000E+00 -8.6230E-06 -1.1512E-06 -1.5481E-07 -1.5511E-07                                                                                                                                                                                                                                                                                                                                                                                                                                                                                                                                                                                                                                                        
  875.0000     125.0000   -5225.0000  125.506  0.19728 -2.71597E-03  1.10000E-17  1.0000E+00  1.10000E-17  1.0000E+00 -6.5628E-06 -1.1933E-06 -9.9465E-08 -1.6552E-07                                                                                                                                                                                                                                                                                                                                                                                                                                                                                                                                                                                                                                                        
 1050.0000     125.0000   -5225.0000  111.129  0.29618 -3.82001E-03  1.10000E-10  1.0000E+00  1.10000E-10  1.0000E+00 -3.1597E-04  1.5356E-06 -7.0352E-06  1.3459E-07                                                                                                                                                                                                                                                                                                                                                                                                                                                                                                                                                                                                                                                        
 1225.0000     125.0000   -5225.0000  125.506  0.19728 -2.71597E-03  1.10000E-17  1.0000E+00  1.10000E-17  1.0000E+00 -6.5628E-06 -1.1933E-06 -9.9465E-08 -1.6552E-07                                                                                                                                                                                                                                                                                                                                                                                                                                                                                                                                                                                                                                                        
 1475.0000     125.0000   -5225.0000  143.695  0.19731 -2.68694E-03  1.10000E-17  1.0000E+00  1.10000E-17  1.0000E+00 -8.6230E-06 -1.1512E-06 -1.5481E-07 -1.5511E-07                                                                                                                                                                                                                                                                                                                                                                                                                                                                                                                                                                                                                                                        
 1725.0000     125.0000   -5225.0000  156.581  0.19734 -2.66164E-03  1.10000E-17  1.0000E+00  1.10000E-17  1.0000E+00 -1.0272E-05 -1.1168E-06 -2.0571E-07 -1.4519E-07                                                                                                                                                                                                                                                                                                                                                                                                                                                                                                                                                                                                                                                        
 1975.0000     125.0000   -5225.0000  163.059  0.19735 -2.64765E-03  1.10000E-17  1.0000E+00  1.10000E-17  1.0000E+00 -1.1198E-05 -1.0987E-06 -2.3516E-07 -1.3948E-07                                                                                                                                                                                                                                                                                                                                                                                                                                                                                                                                                                                                                                                        
  125.0000     125.0000   -4975.0000  153.816  0.19750 -2.50379E-03  1.10000E-17  1.0000E+00  1.10000E-17  1.0000E+00 -1.0020E-05 -1.1378E-06 -1.9623E-07 -1.4915E-07                                                                                                                                                                                                                                                                                                                                                                                                                                                                                                                                                                                                                                                        
  375.0000     125.0000   -4975.0000  148.472  0.19748 -2.52011E-03  1.10000E-17  1.0000E+00  1.10000E-17  1.0000E+00 -9.2870E-06 -1.1534E-06 -1.7466E-07 -1.5360E-07                                                                                                                                                                                                                                                                                                                                                                                                                                                                                                                                                                                                                                                        
  625.0000     125.0000   -4975.0000  137.887  0.19745 -2.55050E-03  1.10000E-17  1.0000E+00  1.10000E-17  1.0000E+00 -7.9582E-06 -1.1823E-06 -1.3649E-07 -1.6123E-07                                                                                                                                                                                                                                                                                                                                                                                                                                                                                                                                                                                                                                                        
  875.0000     125.0000   -4975.0000  123.063  0.19741 -2.58868E-03  1.10000E-17  1.0000E+00  1.10000E-17  1.0000E+00 -6.3146E-06 -1.2150E-06 -9.3509E-08 -1.6876E-07                                                                                                                                                                                                                                                                                                                                                                                                                                                                                                                                                                                                                                                        
 1050.0000     125.0000   -4975.0000  111.501  0.29644 -3.56268E-03  1.10000E-10  1.0000E+00  1.10000E-10  1.0000E+00 -3.8650E-04  3.7753E-06 -8.5102E-06  3.9133E-07                                                                                                                                                                                                                                                                                                                                                                                                                                                                                                                                                                                                                                                        
 1225.0000     125.0000   -4975.0000  123.063  0.19741 -2.58868E-03  1.10000E-17  1.0000E+00  1.10000E-17  1.0000E+00 -6.3146E-06 -1.2150E-06 -9.3509E-08 -1.6876E-07                                                                                                                                                                                                                                                                                                                                                                                                                                                                                                                                                                                                                                                        
 1475.0000     125.0000   -4975.0000  137.887  0.19745 -2.55050E-03  1.10000E-17  1.0000E+00  1.10000E-17  1.0000E+00 -7.9582E-06 -1.1823E-06 -1.3649E-07 -1.6123E-07                                                                                                                                                                                                                                                                                                                                                                                                                                                                                                                                                                                                                                                        
 1725.0000     125.0000   -4975.0000  148.472  0.19748 -2.52011E-03  1.10000E-17  1.0000E+00  1.10000E-17  1.0000E+00 -9.2870E-06 -1.1534E-06 -1.7466E-07 -1.5360E-07                                                                                                                                                                                                                                                                                                                                                                                                                                                                                                                                                                                                                                                        
 1975.0000     125.0000   -4975.0000  153.816  0.19750 -2.50379E-03  1.10000E-17  1.0000E+00  1.10000E-17  1.0000E+00 -1.0020E-05 -1.1378E-06 -1.9623E-07 -1.4915E-07                                                                                                                                                                                                                                                                                                                                                                                                                                                                                                                                                                                                                                                        
  125.0000     125.0000   -4725.0000  139.470  0.19762 -2.38415E-03  1.10000E-17  1.0000E+00  1.10000E-17  1.0000E+00 -8.2688E-06 -1.1914E-06 -1.4425E-07 -1.6184E-07                                                                                                                                                                                                                                                                                                                                                                                                                                                                                                                                                                                                                                                        
  375.0000     125.0000   -4725.0000  135.905  0.19760 -2.39944E-03  1.10000E-17  1.0000E+00  1.10000E-17  1.0000E+00 -7.8271E-06 -1.2010E-06 -1.3236E-07 -1.6421E-07                                                                                                                                                                                                                                                                                                                                                                                                                                                                                                                                                                                                                                                        
  625.0000     125.0000   -4725.0000  128.871  0.19757 -2.42883E-03  1.10000E-17  1.0000E+00  1.10000E-17  1.0000E+00 -6.9962E-06 -1.2185E-06 -1.1041E-07 -1.6824E-07                                                                                                                                                                                                                                                                                                                                                                                                                                                                                                                                                                                                                                                        
  875.0000     125.0000   -4725.0000  119.187  0.19753 -2.46768E-03  1.10000E-17  1.0000E+00  1.10000E-17  1.0000E+00 -5.9515E-06 -1.2378E-06 -8.4883E-08 -1.7205E-07                                                                                                                                                                                                                                                                                                                                                                                                                                                                                                                                                                                                                                                        
 1050.0000     125.0000   -4725.0000  111.875  0.29664 -3.35577E-03  1.10000E-10  1.0000E+00  1.10000E-10  1.0000E+00 -4.0513E-04  6.2809E-06 -8.9235E-06  7.2048E-07                                                                                                                                                                                                                                                                                                                                                                                                                                                                                                                                                                                                                                                        
 1225.0000     125.0000   -4725.0000  119.187  0.19753 -2.46768E-03  1.10000E-17  1.0000E+00  1.10000E-17  1.0000E+00 -5.9515E-06 -1.2378E-06 -8.4883E-08 -1.7205E-07                                                                                                                                                                                                                                                                                                                                                                                                                                                                                                                                                                                                                                                        
 1475.0000     125.0000   -4725.0000  128.871  0.19757 -2.42883E-03  1.10000E-17  1.0000E+00  1.10000E-17  1.0000E+00 -6.9962E-06 -1.2185E-06 -1.1041E-07 -1.6824E-07                                                                                                                                                                                                                                                                                                                                                                                                                                                                                                                                                                                                                                                        
 1725.0000     125.0000   -4725.0000  135.905  0.19760 -2.39944E-03  1.10000E-17  1.0000E+00  1.10000E-17  1.0000E+00 -7.8271E-06 -1.2010E-06 -1.3236E-07 -1.6421E-07                                                                                                                                                                                                                                                                                                                                                                                                                                                                                                                                                                                                                                                        