Title="TREACTMECH V1.0-OMP-MPI displacement.tec: Nodal Displacements"                                                                                                                                                                                                                                                                                                                                                                                                                                                                                                                                                                                                                                                                                                                                                           
Variables= "X(m)"     "Y(m)"      "Z(m)"      "Disp_x"      "Disp_y"      "Disp_z"                                                                                                                                                                                                                                                                                                                                                                                                                                                                                                                                                                                                                                                                                                                                              
Zone T= "1.00000000E+09 sec" I=    10 J=    11 K=    24 F=Point
  0.000000E+00  0.000000E+00 -5.500000E+03  0.000000E+00  0.000000E+00  0.000000E+00                                                                                                                                                                                                                                                                                                                                                                                                                                                                                                                                                                                                                                                                                                                                            
  2.500000E+02  0.000000E+00 -5.500000E+03  8.396537E-02  0.000000E+00  0.000000E+00                                                                                                                                                                                                                                                                                                                                                                                                                                                                                                                                                                                                                                                                                                                                            
  5.000000E+02  0.000000E+00 -5.500000E+03  1.261661E-01  0.000000E+00  0.000000E+00                                                                                                                                                                                                                                                                                                                                                                                                                                                                                                                                                                                                                                                                                                                                            
  7.500000E+02  0.000000E+00 -5.500000E+03  1.011129E-01  0.000000E+00  0.000000E+00                                                                                                                                                                                                                                                                                                                                                                                                                                                                                                                                                                                                                                                                                                                                            
  1.000000E+03  0.000000E+00 -5.500000E+03  2.020898E-02  0.000000E+00  0.000000E+00                                                                                                                                                                                                                                                                                                                                                                                                                                                                                                                                                                                                                                                                                                                                            
  1.100000E+03  0.000000E+00 -5.500000E+03 -2.020898E-02  0.000000E+00  0.000000E+00                                                                                                                                                                                                                                                                                                                                                                                                                                                                                                                                                                                                                                                                                                                                            
  1.350000E+03  0.000000E+00 -5.500000E+03 -1.011129E-01  0.000000E+00  0.000000E+00                                                                                                                                                                                                                                                                                                                                                                                                                                                                                                                                                                                                                                                                                                                                            
  1.600000E+03  0.000000E+00 -5.500000E+03 -1.261661E-01  0.000000E+00  0.000000E+00                                                                                                                                                                                                                                                                                                                                                                                                                                                                                                                                                                                                                                                                                                                                            
  1.850000E+03  0.000000E+00 -5.500000E+03 -8.396537E-02  0.000000E+00  0.000000E+00                                                                                                                                                                                                                                                                                                                                                                                                                                                                                                                                                                                                                                                                                                                                            
  2.100000E+03  0.000000E+00 -5.500000E+03  0.000000E+00  0.000000E+00  0.000000E+00                                                                                                                                                                                                                                                                                                                                                                                                                                                                                                                                                                                                                                                                                                                                            
  0.000000E+00  2.500000E+02 -5.500000E+03  0.000000E+00  1.245508E-03  0.000000E+00                                                                                                                                                                                                                                                                                                                                                                                                                                                                                                                                                                                                                                                                                                                                            
  2.500000E+02  2.500000E+02 -5.500000E+03  8.385675E-02  1.166921E-03  0.000000E+00                                                                                                                                                                                                                                                                                                                                                                                                                                                                                                                                                                                                                                                                                                                                            
  5.000000E+02  2.500000E+02 -5.500000E+03  1.259613E-01  8.916395E-04  0.000000E+00                                                                                                                                                                                                                                                                                                                                                                                                                                                                                                                                                                                                                                                                                                                                            
  7.500000E+02  2.500000E+02 -5.500000E+03  1.009097E-01  4.632676E-04  0.000000E+00                                                                                                                                                                                                                                                                                                                                                                                                                                                                                                                                                                                                                                                                                                                                            
  1.000000E+03  2.500000E+02 -5.500000E+03  2.018051E-02  1.813343E-04  0.000000E+00                                                                                                                                                                                                                                                                                                                                                                                                                                                                                                                                                                                                                                                                                                                                            
  1.100000E+03  2.500000E+02 -5.500000E+03 -2.018051E-02  1.813343E-04  0.000000E+00                                                                                                                                                                                                                                                                                                                                                                                                                                                                                                                                                                                                                                                                                                                                            
  1.350000E+03  2.500000E+02 -5.500000E+03 -1.009097E-01  4.632685E-04  0.000000E+00                                                                                                                                                                                                                                                                                                                                                                                                                                                                                                                                                                                                                                                                                                                                            
  1.600000E+03  2.500000E+02 -5.500000E+03 -1.259613E-01  8.916412E-04  0.000000E+00                                                                                                                                                                                                                                                                                                                                                                                                                                                                                                                                                                                                                                                                                                                                            
  1.850000E+03  2.500000E+02 -5.500000E+03 -8.385675E-02  1.166923E-03  0.000000E+00                                                                                                                                                                                                                                                                                                                                                                                                                                                                                                                                                                                                                                                                                                                                            
  2.100000E+03  2.500000E+02 -5.500000E+03  0.000000E+00  1.245511E-03  0.000000E+00                                                                                                                                                                                                                                                                                                                                                                                                                                                                                                                                                                                                                                                                                                                                            
  0.000000E+00  5.000000E+02 -5.500000E+03  0.000000E+00  2.304202E-03  0.000000E+00                                                                                                                                                                                                                                                                                                                                                                                                                                                                                                                                                                                                                                                                                                                                            
  2.500000E+02  5.000000E+02 -5.500000E+03  8.355931E-02  2.164808E-03  0.000000E+00                                                                                                                                                                                                                                                                                                                                                                                                                                                                                                                                                                                                                                                                                                                                            
  5.000000E+02  5.000000E+02 -5.500000E+03  1.254032E-01  1.675959E-03  0.000000E+00                                                                                                                                                                                                                                                                                                                                                                                                                                                                                                                                                                                                                                                                                                                                            
  7.500000E+02  5.000000E+02 -5.500000E+03  1.003908E-01  9.364158E-04  0.000000E+00                                                                                                                                                                                                                                                                                                                                                                                                                                                                                                                                                                                                                                                                                                                                            
  1.000000E+03  5.000000E+02 -5.500000E+03  2.005322E-02  4.756140E-04  0.000000E+00                                                                                                                                                                                                                                                                                                                                                                                                                                                                                                                                                                                                                                                                                                                                            
  1.100000E+03  5.000000E+02 -5.500000E+03 -2.005322E-02  4.756138E-04  0.000000E+00                                                                                                                                                                                                                                                                                                                                                                                                                                                                                                                                                                                                                                                                                                                                            
  1.350000E+03  5.000000E+02 -5.500000E+03 -1.003908E-01  9.364171E-04  0.000000E+00                                                                                                                                                                                                                                                                                                                                                                                                                                                                                                                                                                                                                                                                                                                                            
  1.600000E+03  5.000000E+02 -5.500000E+03 -1.254032E-01  1.675962E-03  0.000000E+00                                                                                                                                                                                                                                                                                                                                                                                                                                                                                                                                                                                                                                                                                                                                            
  1.850000E+03  5.000000E+02 -5.500000E+03 -8.355931E-02  2.164809E-03  0.000000E+00                                                                                                                                                                                                                                                                                                                                                                                                                                                                                                                                                                                                                                                                                                                                            
  2.100000E+03  5.000000E+02 -5.500000E+03  0.000000E+00  2.304201E-03  0.000000E+00                                                                                                                                                                                                                                                                                                                                                                                                                                                                                                                                                                                                                                                                                                                                            
  0.000000E+00  7.500000E+02 -5.500000E+03  0.000000E+00  3.106552E-03  0.000000E+00                                                                                                                                                                                                                                                                                                                                                                                                                                                                                                                                                                                                                                                                                                                                            
  2.500000E+02  7.500000E+02 -5.500000E+03  8.314012E-02  2.911323E-03  0.000000E+00                                                                                                                                                                                                                                                                                                                                                                                                                                                                                                                                                                                                                                                                                                                                            
  5.000000E+02  7.500000E+02 -5.500000E+03  1.246443E-01  2.311124E-03  0.000000E+00                                                                                                                                                                                                                                                                                                                                                                                                                                                                                                                                                                                                                                                                                                                                            
  7.500000E+02  7.500000E+02 -5.500000E+03  9.970128E-02  1.462701E-03  0.000000E+00                                                                                                                                                                                                                                                                                                                                                                                                                                                                                                                                                                                                                                                                                                                                            
  1.000000E+03  7.500000E+02 -5.500000E+03  1.989040E-02  9.306151E-04  0.000000E+00                                                                                                                                                                                                                                                                                                                                                                                                                                                                                                                                                                                                                                                                                                                                            