Title="TOUGHREACT V3.30-OMP flowdata.tec: P,T,SAT & Other Variables"                                                                                                                                                                                                                                                                                                                                                                                                                                                                                                                                                                                                                                                                                                                                                            
Variables= "X(m)"     "Y(m)"      "Z(m)"       "P(Pa)"        "T(C)"      "SatGas"      "SatLiq"          "X1"          "X2"    "Pcap(Pa)"  "DGas_kg/m3"  "DLiq_kg/m3"    "Porosity"  "Perm_X(m2)"  "Perm_Y(m2)"  "Perm_Z(m2)"    "Krel_Gas"    "Krel_Liq"                                                                                                                                                                                                                                                                                                                                                                                                                                                                                                                                                                      
Zone T= "5.00000000E-02 sec" I=     9 J=    10 K=    23 F=Point
  1.250000E+02  1.250000E+02 -5.425000E+03  5.924662E+07  2.320000E+02  0.000000E+00  1.000000E+00  1.000000E+00  0.000000E+00  0.000000E+00  1.451600E+01  8.698228E+02  2.000000E-01  9.997247E-17  9.997247E-17  9.997247E-17  0.000000E+00  1.000000E+00                                                                                                                                                                                                                                                                                                                                                                                                                                                                                                                                                                    
  3.750000E+02  1.250000E+02 -5.425000E+03  5.924662E+07  2.320000E+02  0.000000E+00  1.000000E+00  1.000000E+00  0.000000E+00  0.000000E+00  1.451600E+01  8.698228E+02  2.000000E-01  9.994728E-17  9.994728E-17  9.994728E-17  0.000000E+00  1.000000E+00                                                                                                                                                                                                                                                                                                                                                                                                                                                                                                                                                                    
  6.250000E+02  1.250000E+02 -5.425000E+03  5.924662E+07  2.320000E+02  0.000000E+00  1.000000E+00  1.000000E+00  0.000000E+00  0.000000E+00  1.451600E+01  8.698228E+02  2.000000E-01  9.990347E-17  9.990347E-17  9.990347E-17  0.000000E+00  1.000000E+00                                                                                                                                                                                                                                                                                                                                                                                                                                                                                                                                                                    
  8.750000E+02  1.250000E+02 -5.425000E+03  5.924662E+07  2.320000E+02  0.000000E+00  1.000000E+00  1.000000E+00  0.000000E+00  0.000000E+00  1.451600E+01  8.698228E+02  2.000000E-01  9.985913E-17  9.985913E-17  9.985913E-17  0.000000E+00  1.000000E+00                                                                                                                                                                                                                                                                                                                                                                                                                                                                                                                                                                    
  1.050000E+03  1.250000E+02 -5.425000E+03  5.924662E+07  2.320000E+02  0.000000E+00  1.000000E+00  1.000000E+00  0.000000E+00  0.000000E+00  1.451600E+01  8.698228E+02  2.000000E-01  9.984010E-17  9.984010E-17  9.984010E-17  0.000000E+00  1.000000E+00                                                                                                                                                                                                                                                                                                                                                                                                                                                                                                                                                                    
  1.225000E+03  1.250000E+02 -5.425000E+03  5.924662E+07  2.320000E+02  0.000000E+00  1.000000E+00  1.000000E+00  0.000000E+00  0.000000E+00  1.451600E+01  8.698228E+02  2.000000E-01  9.985913E-17  9.985913E-17  9.985913E-17  0.000000E+00  1.000000E+00                                                                                                                                                                                                                                                                                                                                                                                                                                                                                                                                                                    
  1.475000E+03  1.250000E+02 -5.425000E+03  5.924662E+07  2.320000E+02  0.000000E+00  1.000000E+00  1.000000E+00  0.000000E+00  0.000000E+00  1.451600E+01  8.698228E+02  2.000000E-01  9.990347E-17  9.990347E-17  9.990347E-17  0.000000E+00  1.000000E+00                                                                                                                                                                                                                                                                                                                                                                                                                                                                                                                                                                    
  1.725000E+03  1.250000E+02 -5.425000E+03  5.924662E+07  2.320000E+02  0.000000E+00  1.000000E+00  1.000000E+00  0.000000E+00  0.000000E+00  1.451600E+01  8.698228E+02  2.000000E-01  9.994728E-17  9.994728E-17  9.994728E-17  0.000000E+00  1.000000E+00                                                                                                                                                                                                                                                                                                                                                                                                                                                                                                                                                                    
  1.975000E+03  1.250000E+02 -5.425000E+03  5.924662E+07  2.320000E+02  0.000000E+00  1.000000E+00  1.000000E+00  0.000000E+00  0.000000E+00  1.451600E+01  8.698228E+02  2.000000E-01  9.997247E-17  9.997247E-17  9.997247E-17  0.000000E+00  1.000000E+00                                                                                                                                                                                                                                                                                                                                                                                                                                                                                                                                                                    
  1.250000E+02  1.250000E+02 -5.225000E+03  5.723763E+07  2.240000E+02  0.000000E+00  1.000000E+00  1.000000E+00  0.000000E+00  0.000000E+00  1.252813E+01  8.770824E+02  2.000000E-01  9.997989E-17  9.997989E-17  9.997989E-17  0.000000E+00  1.000000E+00                                                                                                                                                                                                                                                                                                                                                                                                                                                                                                                                                                    
  3.750000E+02  1.250000E+02 -5.225000E+03  5.723763E+07  2.240000E+02  0.000000E+00  1.000000E+00  1.000000E+00  0.000000E+00  0.000000E+00  1.252813E+01  8.770824E+02  2.000000E-01  9.995348E-17  9.995348E-17  9.995348E-17  0.000000E+00  1.000000E+00                                                                                                                                                                                                                                                                                                                                                                                                                                                                                                                                                                    
  6.250000E+02  1.250000E+02 -5.225000E+03  5.723763E+07  2.240000E+02  0.000000E+00  1.000000E+00  1.000000E+00  0.000000E+00  0.000000E+00  1.252813E+01  8.770824E+02  2.000000E-01  9.990446E-17  9.990446E-17  9.990446E-17  0.000000E+00  1.000000E+00                                                                                                                                                                                                                                                                                                                                                                                                                                                                                                                                                                    
  8.750000E+02  1.250000E+02 -5.225000E+03  5.723763E+07  2.240000E+02  0.000000E+00  1.000000E+00  1.000000E+00  0.000000E+00  0.000000E+00  1.252813E+01  8.770824E+02  2.000000E-01  9.985118E-17  9.985118E-17  9.985118E-17  0.000000E+00  1.000000E+00                                                                                                                                                                                                                                                                                                                                                                                                                                                                                                                                                                    
  1.050000E+03  1.250000E+02 -5.225000E+03  5.723763E+07  2.240000E+02  0.000000E+00  1.000000E+00  1.000000E+00  0.000000E+00  0.000000E+00  1.252813E+01  8.770824E+02  2.000000E-01  9.982746E-17  9.982746E-17  9.982746E-17  0.000000E+00  1.000000E+00                                                                                                                                                                                                                                                                                                                                                                                                                                                                                                                                                                    
  1.225000E+03  1.250000E+02 -5.225000E+03  5.723763E+07  2.240000E+02  0.000000E+00  1.000000E+00  1.000000E+00  0.000000E+00  0.000000E+00  1.252813E+01  8.770824E+02  2.000000E-01  9.985118E-17  9.985118E-17  9.985118E-17  0.000000E+00  1.000000E+00                                                                                                                                                                                                                                                                                                                                                                                                                                                                                                                                                                    
  1.475000E+03  1.250000E+02 -5.225000E+03  5.723763E+07  2.240000E+02  0.000000E+00  1.000000E+00  1.000000E+00  0.000000E+00  0.000000E+00  1.252813E+01  8.770824E+02  2.000000E-01  9.990446E-17  9.990446E-17  9.990446E-17  0.000000E+00  1.000000E+00                                                                                                                                                                                                                                                                                                                                                                                                                                                                                                                                                                    
  1.725000E+03  1.250000E+02 -5.225000E+03  5.723763E+07  2.240000E+02  0.000000E+00  1.000000E+00  1.000000E+00  0.000000E+00  0.000000E+00  1.252813E+01  8.770824E+02  2.000000E-01  9.995348E-17  9.995348E-17  9.995348E-17  0.000000E+00  1.000000E+00                                                                                                                                                                                                                                                                                                                                                                                                                                                                                                                                                                    
  1.975000E+03  1.250000E+02 -5.225000E+03  5.723763E+07  2.240000E+02  0.000000E+00  1.000000E+00  1.000000E+00  0.000000E+00  0.000000E+00  1.252813E+01  8.770824E+02  2.000000E-01  9.997989E-17  9.997989E-17  9.997989E-17  0.000000E+00  1.000000E+00                                                                                                                                                                                                                                                                                                                                                                                                                                                                                                                                                                    
  1.250000E+02  1.250000E+02 -4.975000E+03  5.472638E+07  2.140000E+02  0.000000E+00  1.000000E+00  1.000000E+00  0.000000E+00  0.000000E+00  1.036683E+01  8.859651E+02  2.000000E-01  9.998650E-17  9.998650E-17  9.998650E-17  0.000000E+00  1.000000E+00                                                                                                                                                                                                                                                                                                                                                                                                                                                                                                                                                                    
  3.750000E+02  1.250000E+02 -4.975000E+03  5.472638E+07  2.140000E+02  0.000000E+00  1.000000E+00  1.000000E+00  0.000000E+00  0.000000E+00  1.036683E+01  8.859651E+02  2.000000E-01  9.996040E-17  9.996040E-17  9.996040E-17  0.000000E+00  1.000000E+00                                                                                                                                                                                                                                                                                                                                                                                                                                                                                                                                                                    
  6.250000E+02  1.250000E+02 -4.975000E+03  5.472638E+07  2.140000E+02  0.000000E+00  1.000000E+00  1.000000E+00  0.000000E+00  0.000000E+00  1.036683E+01  8.859651E+02  2.000000E-01  9.990736E-17  9.990736E-17  9.990736E-17  0.000000E+00  1.000000E+00                                                                                                                                                                                                                                                                                                                                                                                                                                                                                                                                                                    
  8.750000E+02  1.250000E+02 -4.975000E+03  5.472638E+07  2.140000E+02  0.000000E+00  1.000000E+00  1.000000E+00  0.000000E+00  0.000000E+00  1.036683E+01  8.859651E+02  2.000000E-01  9.984328E-17  9.984328E-17  9.984328E-17  0.000000E+00  1.000000E+00                                                                                                                                                                                                                                                                                                                                                                                                                                                                                                                                                                    
  1.050000E+03  1.250000E+02 -4.975000E+03  5.472638E+07  2.140000E+02  0.000000E+00  1.000000E+00  1.000000E+00  0.000000E+00  0.000000E+00  1.036683E+01  8.859651E+02  2.000000E-01  9.981144E-17  9.981144E-17  9.981144E-17  0.000000E+00  1.000000E+00                                                                                                                                                                                                                                                                                                                                                                                                                                                                                                                                                                    
  1.225000E+03  1.250000E+02 -4.975000E+03  5.472638E+07  2.140000E+02  0.000000E+00  1.000000E+00  1.000000E+00  0.000000E+00  0.000000E+00  1.036683E+01  8.859651E+02  2.000000E-01  9.984328E-17  9.984328E-17  9.984328E-17  0.000000E+00  1.000000E+00                                                                                                                                                                                                                                                                                                                                                                                                                                                                                                                                                                    
  1.475000E+03  1.250000E+02 -4.975000E+03  5.472638E+07  2.140000E+02  0.000000E+00  1.000000E+00  1.000000E+00  0.000000E+00  0.000000E+00  1.036683E+01  8.859651E+02  2.000000E-01  9.990736E-17  9.990736E-17  9.990736E-17  0.000000E+00  1.000000E+00                                                                                                                                                                                                                                                                                                                                                                                                                                                                                                                                                                    
  1.725000E+03  1.250000E+02 -4.975000E+03  5.472638E+07  2.140000E+02  0.000000E+00  1.000000E+00  1.000000E+00  0.000000E+00  0.000000E+00  1.036683E+01  8.859651E+02  2.000000E-01  9.996040E-17  9.996040E-17  9.996040E-17  0.000000E+00  1.000000E+00                                                                                                                                                                                                                                                                                                                                                                                                                                                                                                                                                                    
  1.975000E+03  1.250000E+02 -4.975000E+03  5.472638E+07  2.140000E+02  0.000000E+00  1.000000E+00  1.000000E+00  0.000000E+00  0.000000E+00  1.036683E+01  8.859651E+02  2.000000E-01  9.998650E-17  9.998650E-17  9.998650E-17  0.000000E+00  1.000000E+00                                                                                                                                                                                                                                                                                                                                                                                                                                                                                                                                                                    
  1.250000E+02  1.250000E+02 -4.725000E+03  5.221512E+07  2.040000E+02  0.000000E+00  1.000000E+00  1.000000E+00  0.000000E+00  0.000000E+00  8.522317E+00  8.946290E+02  2.000000E-01  9.999087E-17  9.999087E-17  9.999087E-17  0.000000E+00  1.000000E+00                                                                                                                                                                                                                                                                                                                                                                                                                                                                                                                                                                    
  3.750000E+02  1.250000E+02 -4.725000E+03  5.221512E+07  2.040000E+02  0.000000E+00  1.000000E+00  1.000000E+00  0.000000E+00  0.000000E+00  8.522317E+00  8.946290E+02  2.000000E-01  9.996650E-17  9.996650E-17  9.996650E-17  0.000000E+00  1.000000E+00                                                                                                                                                                                                                                                                                                                                                                                                                                                                                                                                                                    
  6.250000E+02  1.250000E+02 -4.725000E+03  5.221512E+07  2.040000E+02  0.000000E+00  1.000000E+00  1.000000E+00  0.000000E+00  0.000000E+00  8.522317E+00  8.946290E+02  2.000000E-01  9.991555E-17  9.991555E-17  9.991555E-17  0.000000E+00  1.000000E+00                                                                                                                                                                                                                                                                                                                                                                                                                                                                                                                                                                    
  8.750000E+02  1.250000E+02 -4.725000E+03  5.221512E+07  2.040000E+02  0.000000E+00  1.000000E+00  1.000000E+00  0.000000E+00  0.000000E+00  8.522317E+00  8.946290E+02  2.000000E-01  9.983584E-17  9.983584E-17  9.983584E-17  0.000000E+00  1.000000E+00                                                                                                                                                                                                                                                                                                                                                                                                                                                                                                                                                                    
  1.050000E+03  1.250000E+02 -4.725000E+03  5.221512E+07  2.040000E+02  0.000000E+00  1.000000E+00  1.000000E+00  0.000000E+00  0.000000E+00  8.522317E+00  8.946290E+02  2.000000E-01  9.979358E-17  9.979358E-17  9.979358E-17  0.000000E+00  1.000000E+00                                                                                                                                                                                                                                                                                                                                                                                                                                                                                                                                                                    
  1.225000E+03  1.250000E+02 -4.725000E+03  5.221512E+07  2.040000E+02  0.000000E+00  1.000000E+00  1.000000E+00  0.000000E+00  0.000000E+00  8.522317E+00  8.946290E+02  2.000000E-01  9.983584E-17  9.983584E-17  9.983584E-17  0.000000E+00  1.000000E+00                                                                                                                                                                                                                                                                                                                                                                                                                                                                                                                                                                    
  1.475000E+03  1.250000E+02 -4.725000E+03  5.221512E+07  2.040000E+02  0.000000E+00  1.000000E+00  1.000000E+00  0.000000E+00  0.000000E+00  8.522317E+00  8.946290E+02  2.000000E-01  9.991555E-17  9.991555E-17  9.991555E-17  0.000000E+00  1.000000E+00                                                                                                                                                                                                                                                                                                                                                                                                                                                                                                                                                                    
  1.725000E+03  1.250000E+02 -4.725000E+03  5.221512E+07  2.040000E+02  0.000000E+00  1.000000E+00  1.000000E+00  0.000000E+00  0.000000E+00  8.522317E+00  8.946290E+02  2.000000E-01  9.996650E-17  9.996650E-17  9.996650E-17  0.000000E+00  1.000000E+00                                                                                                                                                                                                                                                                                                                                                                                                                                                                                                                                                                    