Title="TREACTMECH V1.0-OMP-MPI stress-strain.tec: Total Stresses (Pa), Strains"                                                                                                                                                                                                                                                                                                                                                                                                                                                                                                                                                                                                                                                                                                                                                 
Variables= "X(m)"     "Y(m)"      "Z(m)"    "Sigma_xx"    "Sigma_yy"    "Sigma_zz"    "Sigma_yz"    "Sigma_xz"    "Sigma_xy"   "Strain_xx"   "Strain_yy"   "Strain_zz"   "Strain_yz"   "Strain_xz"   "Strain_xy"  "Vol_Strain"   "E_fail_xx"   "E_fail_yy"   "E_fail_zz"  "E_fail_yz2"  "E_fail_xz2"  "E_fail_xy2"  "E_fail_vol"                                                                                                                                                                                                                                                                                                                                                                                                                                                                                                
Zone T= "5.00000000E-02 sec" I=     9 J=    10 K=    23 F=Point
  1.250000E+02  1.250000E+02 -5.425000E+03 -1.072840E+08 -9.387184E+07 -1.198819E+08 -4.523699E-05  6.074633E+03 -9.117993E-05  7.037731E-05  1.476285E-12 -9.687206E-05 -1.052807E-14  1.413758E-06 -1.580452E-14 -2.649474E-05  0.000000E+00  0.000000E+00  0.000000E+00  0.000000E+00  0.000000E+00  0.000000E+00  0.000000E+00                                                                                                                                                                                                                                                                                                                                                                                                                                                                                              
  3.750000E+02  1.250000E+02 -5.425000E+03 -1.073272E+08 -9.362578E+07 -1.194359E+08 -1.368710E-05  2.125504E+04  1.518517E-04  3.930017E-05  1.449197E-12 -9.004808E-05 -3.185416E-15  4.946714E-06  2.632097E-14 -5.074790E-05  0.000000E+00  0.000000E+00  0.000000E+00  0.000000E+00  0.000000E+00  0.000000E+00  0.000000E+00                                                                                                                                                                                                                                                                                                                                                                                                                                                                                              
  6.250000E+02  1.250000E+02 -5.425000E+03 -1.074231E+08 -9.319794E+07 -1.186399E+08  5.102877E-05  3.472397E+04  2.567698E-04 -1.652651E-05  1.416469E-12 -7.640787E-05  1.187599E-14  8.081357E-06  4.450677E-14 -9.293438E-05  0.000000E+00  0.000000E+00  0.000000E+00  0.000000E+00  0.000000E+00  0.000000E+00  0.000000E+00                                                                                                                                                                                                                                                                                                                                                                                                                                                                                              
  8.750000E+02  1.250000E+02 -5.425000E+03 -1.075335E+08 -9.277106E+07 -1.178358E+08  1.400994E-04  2.519215E+04  3.847549E-04 -7.357509E-05  1.356220E-12 -6.206093E-05  3.260553E-14  5.863004E-06  6.669085E-14 -1.356360E-04  0.000000E+00  0.000000E+00  0.000000E+00  0.000000E+00  0.000000E+00  0.000000E+00  0.000000E+00                                                                                                                                                                                                                                                                                                                                                                                                                                                                                              
  1.050000E+03  1.250000E+02 -5.425000E+03 -1.075796E+08 -9.258855E+07 -1.174937E+08  1.982519E-04  2.545296E-03  3.794204E-04 -9.787938E-05  1.308465E-12 -5.609084E-05  4.613942E-14  5.923702E-13  6.576621E-14 -1.539702E-04  0.000000E+00  0.000000E+00  0.000000E+00  0.000000E+00  0.000000E+00  0.000000E+00  0.000000E+00                                                                                                                                                                                                                                                                                                                                                                                                                                                                                              
  1.225000E+03  1.250000E+02 -5.425000E+03 -1.075335E+08 -9.277106E+07 -1.178358E+08  1.948892E-04 -2.519215E+04  3.664991E-04 -7.357510E-05  1.280340E-12 -6.206093E-05  4.535681E-14 -5.863002E-06  6.352650E-14 -1.356360E-04  0.000000E+00  0.000000E+00  0.000000E+00  0.000000E+00  0.000000E+00  0.000000E+00  0.000000E+00                                                                                                                                                                                                                                                                                                                                                                                                                                                                                              
  1.475000E+03  1.250000E+02 -5.425000E+03 -1.074231E+08 -9.319794E+07 -1.186399E+08  1.765870E-04 -3.472397E+04  1.129537E-04 -1.652651E-05  1.246785E-12 -7.640787E-05  4.109734E-14 -8.081356E-06  1.957864E-14 -9.293438E-05  0.000000E+00  0.000000E+00  0.000000E+00  0.000000E+00  0.000000E+00  0.000000E+00  0.000000E+00                                                                                                                                                                                                                                                                                                                                                                                                                                                                                              
  1.725000E+03  1.250000E+02 -5.425000E+03 -1.073272E+08 -9.362578E+07 -1.194359E+08  1.879424E-04 -2.125504E+04  4.278501E-05  3.930017E-05  1.225512E-12 -9.004807E-05  4.374010E-14 -4.946713E-06  7.416068E-15 -5.074790E-05  0.000000E+00  0.000000E+00  0.000000E+00  0.000000E+00  0.000000E+00  0.000000E+00  0.000000E+00                                                                                                                                                                                                                                                                                                                                                                                                                                                                                              
  1.975000E+03  1.250000E+02 -5.425000E+03 -1.072840E+08 -9.387184E+07 -1.198819E+08  1.791426E-04 -6.074633E+03 -1.308384E-05  7.037731E-05  1.224184E-12 -9.687205E-05  4.169210E-14 -1.413757E-06 -2.267866E-15 -2.649474E-05  0.000000E+00  0.000000E+00  0.000000E+00  0.000000E+00  0.000000E+00  0.000000E+00  0.000000E+00                                                                                                                                                                                                                                                                                                                                                                                                                                                                                              
  1.250000E+02  1.250000E+02 -5.225000E+03 -1.037463E+08 -9.080855E+07 -1.159569E+08  3.192713E-04  1.873254E+04 -9.314795E-05  7.198107E-05  1.444705E-12 -9.133982E-05  7.430444E-14  4.359648E-06 -1.614564E-14 -1.935874E-05  0.000000E+00  0.000000E+00  0.000000E+00  0.000000E+00  0.000000E+00  0.000000E+00  0.000000E+00                                                                                                                                                                                                                                                                                                                                                                                                                                                                                              
  3.750000E+02  1.250000E+02 -5.225000E+03 -1.037712E+08 -9.055539E+07 -1.155213E+08  4.085891E-04  6.248086E+04  1.697524E-04  4.164870E-05  1.422270E-12 -8.642783E-05  9.509150E-14  1.454125E-05  2.942375E-14 -4.477914E-05  0.000000E+00  0.000000E+00  0.000000E+00  0.000000E+00  0.000000E+00  0.000000E+00  0.000000E+00                                                                                                                                                                                                                                                                                                                                                                                                                                                                                              
  6.250000E+02  1.250000E+02 -5.225000E+03 -1.038268E+08 -9.008633E+07 -1.147057E+08  5.263961E-04  1.003571E+05  3.507203E-04 -1.537033E-05  1.398380E-12 -7.660900E-05  1.225089E-13  2.335623E-05  6.079152E-14 -9.197933E-05  0.000000E+00  0.000000E+00  0.000000E+00  0.000000E+00  0.000000E+00  0.000000E+00  0.000000E+00                                                                                                                                                                                                                                                                                                                                                                                                                                                                                              
  8.750000E+02  1.250000E+02 -5.225000E+03 -1.038989E+08 -8.958699E+07 -1.138329E+08  6.652682E-04  7.227783E+04  5.179332E-04 -7.731593E-05  1.346050E-12 -6.598287E-05  1.548288E-13  1.682132E-05  8.977508E-14 -1.432988E-04  0.000000E+00  0.000000E+00  0.000000E+00  0.000000E+00  0.000000E+00  0.000000E+00  0.000000E+00                                                                                                                                                                                                                                                                                                                                                                                                                                                                                              
  1.050000E+03  1.250000E+02 -5.225000E+03 -1.039276E+08 -8.936351E+07 -1.134450E+08  7.492217E-04  6.333521E-03  5.295184E-04 -1.047175E-04  1.300224E-12 -6.143318E-05  1.743674E-13  1.474009E-12  9.178319E-14 -1.661507E-04  0.000000E+00  0.000000E+00  0.000000E+00  0.000000E+00  0.000000E+00  0.000000E+00  0.000000E+00                                                                                                                                                                                                                                                                                                                                                                                                                                                                                              
  1.225000E+03  1.250000E+02 -5.225000E+03 -1.038989E+08 -8.958699E+07 -1.138329E+08  7.178860E-04 -7.227782E+04  4.513112E-04 -7.731593E-05  1.266812E-12 -6.598287E-05  1.670746E-13 -1.682131E-05  7.822727E-14 -1.432988E-04  0.000000E+00  0.000000E+00  0.000000E+00  0.000000E+00  0.000000E+00  0.000000E+00  0.000000E+00                                                                                                                                                                                                                                                                                                                                                                                                                                                                                              
  1.475000E+03  1.250000E+02 -5.225000E+03 -1.038268E+08 -9.008633E+07 -1.147057E+08  6.533294E-04 -1.003571E+05  1.379870E-04 -1.537033E-05  1.224147E-12 -7.660900E-05  1.520502E-13 -2.335623E-05  2.391774E-14 -9.197933E-05  0.000000E+00  0.000000E+00  0.000000E+00  0.000000E+00  0.000000E+00  0.000000E+00  0.000000E+00                                                                                                                                                                                                                                                                                                                                                                                                                                                                                              
  1.725000E+03  1.250000E+02 -5.225000E+03 -1.037712E+08 -9.055539E+07 -1.155213E+08  5.874226E-04 -6.248085E+04  1.185960E-05  4.164869E-05  1.197208E-12 -8.642783E-05  1.367116E-13 -1.454125E-05  2.055665E-15 -4.477913E-05  0.000000E+00  0.000000E+00  0.000000E+00  0.000000E+00  0.000000E+00  0.000000E+00  0.000000E+00                                                                                                                                                                                                                                                                                                                                                                                                                                                                                              
  1.975000E+03  1.250000E+02 -5.225000E+03 -1.037463E+08 -9.080855E+07 -1.159569E+08  5.580707E-04 -1.873254E+04 -6.441470E-05  7.198107E-05  1.189681E-12 -9.133981E-05  1.298805E-13 -4.359648E-06 -1.116521E-14 -1.935874E-05  0.000000E+00  0.000000E+00  0.000000E+00  0.000000E+00  0.000000E+00  0.000000E+00  0.000000E+00                                                                                                                                                                                                                                                                                                                                                                                                                                                                                              
  1.250000E+02  1.250000E+02 -4.975000E+03 -9.930430E+07 -8.696874E+07 -1.110648E+08  6.504780E-04  2.590320E+04 -9.464072E-05  7.434217E-05  1.386732E-12 -8.733605E-05  1.513866E-13  6.028487E-06 -1.640439E-14 -1.299387E-05  0.000000E+00  0.000000E+00  0.000000E+00  0.000000E+00  0.000000E+00  0.000000E+00  0.000000E+00                                                                                                                                                                                                                                                                                                                                                                                                                                                                                              
  3.750000E+02  1.250000E+02 -4.975000E+03 -9.930651E+07 -8.671479E+07 -1.106477E+08  8.294290E-04  8.955443E+04  1.831169E-04  4.593736E-05  1.371796E-12 -8.405001E-05  1.930341E-13  2.084212E-05  3.174027E-14 -3.811265E-05  0.000000E+00  0.000000E+00  0.000000E+00  0.000000E+00  0.000000E+00  0.000000E+00  0.000000E+00                                                                                                                                                                                                                                                                                                                                                                                                                                                                                              
  6.250000E+02  1.250000E+02 -4.975000E+03 -9.932805E+07 -8.620685E+07 -1.098027E+08  1.019189E-03  1.546917E+05  3.941625E-04 -1.245580E-05  1.357157E-12 -7.672674E-05  2.371972E-13  3.600160E-05  6.832151E-14 -8.918254E-05  0.000000E+00  0.000000E+00  0.000000E+00  0.000000E+00  0.000000E+00  0.000000E+00  0.000000E+00                                                                                                                                                                                                                                                                                                                                                                                                                                                                                              
  8.750000E+02  1.250000E+02 -4.975000E+03 -9.937473E+07 -8.560199E+07 -1.087827E+08  1.235821E-03  1.229411E+05  5.917415E-04 -8.391697E-05  1.304981E-12 -6.698799E-05  2.876144E-13  2.861225E-05  1.025685E-13 -1.509050E-04  0.000000E+00  0.000000E+00  0.000000E+00  0.000000E+00  0.000000E+00  0.000000E+00  0.000000E+00                                                                                                                                                                                                                                                                                                                                                                                                                                                                                              
  1.050000E+03  1.250000E+02 -4.975000E+03 -9.942240E+07 -8.532163E+07 -1.083004E+08  1.374239E-03  1.178224E-02  6.296075E-04 -1.195338E-04  1.252217E-12 -6.205928E-05  3.198284E-13  2.742096E-12  1.091320E-13 -1.815931E-04  0.000000E+00  0.000000E+00  0.000000E+00  0.000000E+00  0.000000E+00  0.000000E+00  0.000000E+00                                                                                                                                                                                                                                                                                                                                                                                                                                                                                              
  1.225000E+03  1.250000E+02 -4.975000E+03 -9.937473E+07 -8.560199E+07 -1.087827E+08  1.304257E-03 -1.229411E+05  5.236448E-04 -8.391697E-05  1.205465E-12 -6.698798E-05  3.035415E-13 -2.861225E-05  9.076510E-14 -1.509050E-04  0.000000E+00  0.000000E+00  0.000000E+00  0.000000E+00  0.000000E+00  0.000000E+00  0.000000E+00                                                                                                                                                                                                                                                                                                                                                                                                                                                                                              
  1.475000E+03  1.250000E+02 -4.975000E+03 -9.932805E+07 -8.620685E+07 -1.098027E+08  1.159293E-03 -1.546917E+05  1.565883E-04 -1.245581E-05  1.142369E-12 -7.672673E-05  2.698037E-13 -3.600160E-05  2.714198E-14 -8.918254E-05  0.000000E+00  0.000000E+00  0.000000E+00  0.000000E+00  0.000000E+00  0.000000E+00  0.000000E+00                                                                                                                                                                                                                                                                                                                                                                                                                                                                                              
  1.725000E+03  1.250000E+02 -4.975000E+03 -9.930651E+07 -8.671479E+07 -1.106477E+08  9.608091E-04 -8.955442E+04 -2.010637E-05  4.593736E-05  1.095544E-12 -8.405001E-05  2.236104E-13 -2.084212E-05 -3.485105E-15 -3.811265E-05  0.000000E+00  0.000000E+00  0.000000E+00  0.000000E+00  0.000000E+00  0.000000E+00  0.000000E+00                                                                                                                                                                                                                                                                                                                                                                                                                                                                                              
  1.975000E+03  1.250000E+02 -4.975000E+03 -9.930430E+07 -8.696874E+07 -1.110648E+08  8.664116E-04 -2.590320E+04 -8.106762E-05  7.434217E-05  1.075562E-12 -8.733604E-05  2.016411E-13 -6.028486E-06 -1.405172E-14 -1.299387E-05  0.000000E+00  0.000000E+00  0.000000E+00  0.000000E+00  0.000000E+00  0.000000E+00  0.000000E+00                                                                                                                                                                                                                                                                                                                                                                                                                                                                                              
  1.250000E+02  1.250000E+02 -4.725000E+03 -9.491379E+07 -8.314087E+07 -1.061673E+08  8.382922E-04  1.621087E+04 -6.382276E-05  7.319201E-05  1.221344E-12 -8.197918E-05  1.950969E-13  3.772778E-06 -1.106261E-14 -8.787169E-06  0.000000E+00  0.000000E+00  0.000000E+00  0.000000E+00  0.000000E+00  0.000000E+00  0.000000E+00                                                                                                                                                                                                                                                                                                                                                                                                                                                                                              
  3.750000E+02  1.250000E+02 -4.725000E+03 -9.486614E+07 -8.288589E+07 -1.057844E+08  1.121763E-03  6.697485E+04  2.092748E-04  4.919469E-05  1.223994E-12 -8.143906E-05  2.610695E-13  1.558715E-05  3.627430E-14 -3.224436E-05  0.000000E+00  0.000000E+00  0.000000E+00  0.000000E+00  0.000000E+00  0.000000E+00  0.000000E+00                                                                                                                                                                                                                                                                                                                                                                                                                                                                                              
  6.250000E+02  1.250000E+02 -4.725000E+03 -9.478467E+07 -8.234108E+07 -1.049373E+08  1.409935E-03  1.689357E+05  3.896329E-04 -3.723486E-06  1.227061E-12 -7.757686E-05  3.281361E-13  3.931662E-05  6.753637E-14 -8.130034E-05  0.000000E+00  0.000000E+00  0.000000E+00  0.000000E+00  0.000000E+00  0.000000E+00  0.000000E+00                                                                                                                                                                                                                                                                                                                                                                                                                                                                                              
  8.750000E+02  1.250000E+02 -4.725000E+03 -9.483951E+07 -8.160258E+07 -1.037054E+08  1.709327E-03  1.730038E+05  5.649493E-04 -9.094709E-05  1.185192E-12 -6.713188E-05  3.978139E-13  4.026339E-05  9.792455E-14 -1.580790E-04  0.000000E+00  0.000000E+00  0.000000E+00  0.000000E+00  0.000000E+00  0.000000E+00  0.000000E+00                                                                                                                                                                                                                                                                                                                                                                                                                                                                                              
  1.050000E+03  1.250000E+02 -4.725000E+03 -9.484211E+07 -8.117417E+07 -1.029896E+08  1.882762E-03  1.568009E-02  5.173260E-04 -1.385806E-04  1.129685E-12 -6.021819E-05  4.381778E-13  3.649247E-12  8.966984E-14 -1.987988E-04  0.000000E+00  0.000000E+00  0.000000E+00  0.000000E+00  0.000000E+00  0.000000E+00  0.000000E+00                                                                                                                                                                                                                                                                                                                                                                                                                                                                                              
  1.225000E+03  1.250000E+02 -4.725000E+03 -9.483951E+07 -8.160258E+07 -1.037054E+08  1.783416E-03 -1.730037E+05  4.634673E-04 -9.094709E-05  1.064680E-12 -6.713187E-05  4.150568E-13 -4.026339E-05  8.033433E-14 -1.580790E-04  0.000000E+00  0.000000E+00  0.000000E+00  0.000000E+00  0.000000E+00  0.000000E+00  0.000000E+00                                                                                                                                                                                                                                                                                                                                                                                                                                                                                              
  1.475000E+03  1.250000E+02 -4.725000E+03 -9.478467E+07 -8.234108E+07 -1.049373E+08  1.557221E-03 -1.689356E+05  1.399178E-04 -3.723489E-06  9.755308E-13 -7.757685E-05  3.624142E-13 -3.931662E-05  2.425243E-14 -8.130034E-05  0.000000E+00  0.000000E+00  0.000000E+00  0.000000E+00  0.000000E+00  0.000000E+00  0.000000E+00                                                                                                                                                                                                                                                                                                                                                                                                                                                                                              
  1.725000E+03  1.250000E+02 -4.725000E+03 -9.486614E+07 -8.288589E+07 -1.057844E+08  1.216396E-03 -6.697484E+04 -2.890241E-05  4.919469E-05  9.019701E-13 -8.143905E-05  2.830934E-13 -1.558714E-05 -5.009752E-15 -3.224436E-05  0.000000E+00  0.000000E+00  0.000000E+00  0.000000E+00  0.000000E+00  0.000000E+00  0.000000E+00                                                                                                                                                                                                                                                                                                                                                                                                                                                                                              