Title="TREACTMECH V1.0-OMP-MPI stress-strain.tec: Total Stresses (Pa), Strains"                                                                                                                                                                                                                                                                                                                                                                                                                                                                                                                                                                                                                                                                                                                                                 
Variables= "X(m)"     "Y(m)"      "Z(m)"    "Sigma_xx"    "Sigma_yy"    "Sigma_zz"    "Sigma_yz"    "Sigma_xz"    "Sigma_xy"   "Strain_xx"   "Strain_yy"   "Strain_zz"   "Strain_yz"   "Strain_xz"   "Strain_xy"  "Vol_Strain"   "E_fail_xx"   "E_fail_yy"   "E_fail_zz"  "E_fail_yz2"  "E_fail_xz2"  "E_fail_xy2"  "E_fail_vol"                                                                                                                                                                                                                                                                                                                                                                                                                                                                                                
Zone T= "1.00000000E+06 sec" I=     9 J=    10 K=    23 F=Point
  1.250000E+02  1.250000E+02 -5.425000E+03 -1.074200E+08 -9.391186E+07 -1.197954E+08  1.064068E-02  6.692874E+03  1.581709E-03  6.205309E-05  6.519575E-12 -8.590565E-05  2.476419E-12  1.557641E-06  2.741629E-13 -2.385256E-05  0.000000E+00  0.000000E+00  0.000000E+00  0.000000E+00  0.000000E+00  0.000000E+00  0.000000E+00                                                                                                                                                                                                                                                                                                                                                                                                                                                                                              
  3.750000E+02  1.250000E+02 -5.425000E+03 -1.074673E+08 -9.371262E+07 -1.193883E+08  5.060093E-03  2.288110E+04  1.827628E-02  3.469143E-05  5.299488E-12 -7.839708E-05  1.177642E-12  5.325149E-06  3.167888E-12 -4.370564E-05  0.000000E+00  0.000000E+00  0.000000E+00  0.000000E+00  0.000000E+00  0.000000E+00  0.000000E+00                                                                                                                                                                                                                                                                                                                                                                                                                                                                                              
  6.250000E+02  1.250000E+02 -5.425000E+03 -1.075688E+08 -9.336607E+07 -1.186610E+08  7.830510E-04  3.595404E+04 -2.961748E-03 -1.458437E-05  6.868709E-13 -6.366630E-05  1.822405E-13  8.367633E-06 -5.133697E-13 -7.825068E-05  0.000000E+00  0.000000E+00  0.000000E+00  0.000000E+00  0.000000E+00  0.000000E+00  0.000000E+00                                                                                                                                                                                                                                                                                                                                                                                                                                                                                              
  8.750000E+02  1.250000E+02 -5.425000E+03 -1.076808E+08 -9.302032E+07 -1.179266E+08  1.663623E-03  2.599640E+04  1.706844E-03 -6.473261E-05 -5.772805E-12 -4.832361E-05  3.871772E-13  6.050177E-06  2.958530E-13 -1.130562E-04  0.000000E+00  0.000000E+00  0.000000E+00  0.000000E+00  0.000000E+00  0.000000E+00  0.000000E+00                                                                                                                                                                                                                                                                                                                                                                                                                                                                                              
  1.050000E+03  1.250000E+02 -5.425000E+03 -1.077301E+08 -9.286301E+07 -1.176049E+08 -3.449585E-03 -2.498419E-02  3.396010E-02 -8.713727E-05 -7.759447E-12 -4.194296E-05 -8.028264E-13 -5.814605E-12  5.886418E-12 -1.290802E-04  0.000000E+00  0.000000E+00  0.000000E+00  0.000000E+00  0.000000E+00  0.000000E+00  0.000000E+00                                                                                                                                                                                                                                                                                                                                                                                                                                                                                              
  1.225000E+03  1.250000E+02 -5.425000E+03 -1.076808E+08 -9.302033E+07 -1.179266E+08 -4.542622E-03 -2.599637E+04  7.314123E-03 -6.473263E-05 -7.851381E-12 -4.832360E-05 -1.057211E-12 -6.050170E-06  1.267781E-12 -1.130562E-04  0.000000E+00  0.000000E+00  0.000000E+00  0.000000E+00  0.000000E+00  0.000000E+00  0.000000E+00                                                                                                                                                                                                                                                                                                                                                                                                                                                                                              
  1.475000E+03  1.250000E+02 -5.425000E+03 -1.075688E+08 -9.336607E+07 -1.186610E+08  3.062582E-03 -3.595401E+04 -1.045412E-02 -1.458441E-05 -1.037220E-11 -6.366627E-05  7.127588E-13 -8.367626E-06 -1.812047E-12 -7.825069E-05  0.000000E+00  0.000000E+00  0.000000E+00  0.000000E+00  0.000000E+00  0.000000E+00  0.000000E+00                                                                                                                                                                                                                                                                                                                                                                                                                                                                                              
  1.725000E+03  1.250000E+02 -5.425000E+03 -1.074673E+08 -9.371262E+07 -1.193883E+08  2.747370E-03 -2.288109E+04  4.031658E-03  3.469138E-05 -1.255585E-11 -7.839703E-05  6.393992E-13 -5.325147E-06  6.988206E-13 -4.370566E-05  0.000000E+00  0.000000E+00  0.000000E+00  0.000000E+00  0.000000E+00  0.000000E+00  0.000000E+00                                                                                                                                                                                                                                                                                                                                                                                                                                                                                              
  1.975000E+03  1.250000E+02 -5.425000E+03 -1.074200E+08 -9.391186E+07 -1.197954E+08 -3.374417E-03 -6.692860E+03  7.221911E-03  6.205303E-05 -1.233992E-11 -8.590560E-05 -7.853327E-13 -1.557638E-06  1.251798E-12 -2.385258E-05  0.000000E+00  0.000000E+00  0.000000E+00  0.000000E+00  0.000000E+00  0.000000E+00  0.000000E+00                                                                                                                                                                                                                                                                                                                                                                                                                                                                                              
  1.250000E+02  1.250000E+02 -5.225000E+03 -1.038831E+08 -9.085520E+07 -1.158737E+08  9.652270E-03  2.330497E+04  4.663273E-03  6.416754E-05  8.874564E-12 -8.008426E-05  2.246386E-12  5.423797E-06  8.083006E-13 -1.591671E-05  0.000000E+00  0.000000E+00  0.000000E+00  0.000000E+00  0.000000E+00  0.000000E+00  0.000000E+00                                                                                                                                                                                                                                                                                                                                                                                                                                                                                              
  3.750000E+02  1.250000E+02 -5.225000E+03 -1.039225E+08 -9.065396E+07 -1.154752E+08  7.354825E-03  7.344239E+04  6.494357E-03  3.708174E-05  6.903440E-12 -7.388547E-05  1.711698E-12  1.709234E-05  1.125689E-12 -3.680372E-05  0.000000E+00  0.000000E+00  0.000000E+00  0.000000E+00  0.000000E+00  0.000000E+00  0.000000E+00                                                                                                                                                                                                                                                                                                                                                                                                                                                                                              
  6.250000E+02  1.250000E+02 -5.225000E+03 -1.039965E+08 -9.027622E+07 -1.147240E+08  8.088370E-03  1.134771E+05  2.769897E-03 -1.362413E-05  1.961791E-12 -6.173674E-05  1.882417E-12  2.640967E-05  4.801155E-13 -7.536087E-05  0.000000E+00  0.000000E+00  0.000000E+00  0.000000E+00  0.000000E+00  0.000000E+00  0.000000E+00                                                                                                                                                                                                                                                                                                                                                                                                                                                                                              
  8.750000E+02  1.250000E+02 -5.225000E+03 -1.040909E+08 -8.987672E+07 -1.139231E+08  1.784762E-02  8.038403E+04  5.829837E-03 -6.884636E-05 -3.441143E-12 -4.868910E-05  4.153700E-12  1.870788E-05  1.010505E-12 -1.175355E-04  0.000000E+00  0.000000E+00  0.000000E+00  0.000000E+00  0.000000E+00  0.000000E+00  0.000000E+00                                                                                                                                                                                                                                                                                                                                                                                                                                                                                              
  1.050000E+03  1.250000E+02 -5.225000E+03 -1.041185E+08 -8.967932E+07 -1.135495E+08  1.272276E-02 -3.216035E-02  2.273634E-04 -9.389357E-05 -6.546803E-12 -4.312117E-05  2.960986E-12 -7.484721E-12  3.940966E-14 -1.370147E-04  0.000000E+00  0.000000E+00  0.000000E+00  0.000000E+00  0.000000E+00  0.000000E+00  0.000000E+00                                                                                                                                                                                                                                                                                                                                                                                                                                                                                              
  1.225000E+03  1.250000E+02 -5.225000E+03 -1.040909E+08 -8.987672E+07 -1.139231E+08 -2.843253E-05 -8.038408E+04  6.277106E-03 -6.884637E-05 -8.069670E-12 -4.868908E-05 -6.617142E-15 -1.870789E-05  1.088032E-12 -1.175355E-04  0.000000E+00  0.000000E+00  0.000000E+00  0.000000E+00  0.000000E+00  0.000000E+00  0.000000E+00                                                                                                                                                                                                                                                                                                                                                                                                                                                                                              
  1.475000E+03  1.250000E+02 -5.225000E+03 -1.039965E+08 -9.027622E+07 -1.147240E+08  9.096754E-05 -1.134772E+05 -5.828461E-03 -1.362417E-05 -9.837794E-12 -6.173671E-05  2.117100E-14 -2.640969E-05 -1.010267E-12 -7.536089E-05  0.000000E+00  0.000000E+00  0.000000E+00  0.000000E+00  0.000000E+00  0.000000E+00  0.000000E+00                                                                                                                                                                                                                                                                                                                                                                                                                                                                                              
  1.725000E+03  1.250000E+02 -5.225000E+03 -1.039225E+08 -9.065396E+07 -1.154752E+08  2.845666E-03 -7.344243E+04 -2.630027E-03  3.708170E-05 -1.172446E-11 -7.388543E-05  6.622756E-13 -1.709235E-05 -4.558714E-13 -3.680374E-05  0.000000E+00  0.000000E+00  0.000000E+00  0.000000E+00  0.000000E+00  0.000000E+00  0.000000E+00                                                                                                                                                                                                                                                                                                                                                                                                                                                                                              
  1.975000E+03  1.250000E+02 -5.225000E+03 -1.038831E+08 -9.085520E+07 -1.158737E+08 -3.762323E-04 -2.330498E+04  1.043178E-03  6.416748E-05 -1.231593E-11 -8.008421E-05 -8.756104E-14 -5.423798E-06  1.808175E-13 -1.591674E-05  0.000000E+00  0.000000E+00  0.000000E+00  0.000000E+00  0.000000E+00  0.000000E+00  0.000000E+00                                                                                                                                                                                                                                                                                                                                                                                                                                                                                              
  1.250000E+02  1.250000E+02 -4.975000E+03 -9.937485E+07 -8.697887E+07 -1.110004E+08 -1.477834E-02  4.082302E+04  1.747962E-03  6.910624E-05  8.963726E-12 -8.087302E-05 -3.439383E-12  9.500795E-06  3.029802E-13 -1.176678E-05  0.000000E+00  0.000000E+00  0.000000E+00  0.000000E+00  0.000000E+00  0.000000E+00  0.000000E+00                                                                                                                                                                                                                                                                                                                                                                                                                                                                                              
  3.750000E+02  1.250000E+02 -4.975000E+03 -9.940715E+07 -8.677948E+07 -1.106093E+08 -1.000976E-02  1.328434E+05  9.053037E-03  4.282153E-05  7.026921E-12 -7.511212E-05 -2.329586E-12  3.091682E-05  1.569193E-12 -3.229058E-05  0.000000E+00  0.000000E+00  0.000000E+00  0.000000E+00  0.000000E+00  0.000000E+00  0.000000E+00                                                                                                                                                                                                                                                                                                                                                                                                                                                                                              
  6.250000E+02  1.250000E+02 -4.975000E+03 -9.950234E+07 -8.638593E+07 -1.098210E+08  5.141777E-03  2.073668E+05  1.138421E-02 -1.204063E-05  3.765741E-12 -6.279024E-05  1.196653E-12  4.826076E-05  1.973263E-12 -7.483086E-05  0.000000E+00  0.000000E+00  0.000000E+00  0.000000E+00  0.000000E+00  0.000000E+00  0.000000E+00                                                                                                                                                                                                                                                                                                                                                                                                                                                                                              
  8.750000E+02  1.250000E+02 -4.975000E+03 -9.959347E+07 -8.589743E+07 -1.088498E+08  9.962223E-03  1.599341E+05  2.934910E-03 -7.727029E-05 -3.141322E-13 -4.719619E-05  2.318521E-12  3.722167E-05  5.087178E-13 -1.244665E-04  0.000000E+00  0.000000E+00  0.000000E+00  0.000000E+00  0.000000E+00  0.000000E+00  0.000000E+00                                                                                                                                                                                                                                                                                                                                                                                                                                                                                              
  1.050000E+03  1.250000E+02 -4.975000E+03 -9.969724E+07 -8.567088E+07 -1.083880E+08  1.068013E-02 -2.193828E-02 -1.846162E-02 -1.130840E-04 -3.840233E-12 -3.938405E-05  2.485600E-12 -5.105725E-12 -3.200014E-12 -1.524681E-04  0.000000E+00  0.000000E+00  0.000000E+00  0.000000E+00  0.000000E+00  0.000000E+00  0.000000E+00                                                                                                                                                                                                                                                                                                                                                                                                                                                                                              
  1.225000E+03  1.250000E+02 -4.975000E+03 -9.959347E+07 -8.589743E+07 -1.088498E+08  7.335081E-03 -1.599341E+05 -4.316322E-03 -7.727030E-05 -6.535978E-12 -4.719619E-05  1.707103E-12 -3.722168E-05 -7.481625E-13 -1.244665E-04  0.000000E+00  0.000000E+00  0.000000E+00  0.000000E+00  0.000000E+00  0.000000E+00  0.000000E+00                                                                                                                                                                                                                                                                                                                                                                                                                                                                                              
  1.475000E+03  1.250000E+02 -4.975000E+03 -9.950234E+07 -8.638593E+07 -1.098210E+08 -1.438207E-02 -2.073669E+05 -2.122194E-02 -1.204065E-05 -1.035413E-11 -6.279023E-05 -3.347159E-12 -4.826076E-05 -3.678470E-12 -7.483088E-05  0.000000E+00  0.000000E+00  0.000000E+00  0.000000E+00  0.000000E+00  0.000000E+00  0.000000E+00                                                                                                                                                                                                                                                                                                                                                                                                                                                                                              
  1.725000E+03  1.250000E+02 -4.975000E+03 -9.940715E+07 -8.677948E+07 -1.106093E+08 -3.983736E-02 -1.328434E+05 -1.523582E-02  4.282150E-05 -1.465321E-11 -7.511209E-05 -9.271401E-12 -3.091682E-05 -2.640875E-12 -3.229061E-05  0.000000E+00  0.000000E+00  0.000000E+00  0.000000E+00  0.000000E+00  0.000000E+00  0.000000E+00                                                                                                                                                                                                                                                                                                                                                                                                                                                                                              
  1.975000E+03  1.250000E+02 -4.975000E+03 -9.937485E+07 -8.697887E+07 -1.110004E+08 -4.173891E-02 -4.082303E+04  8.474864E-03  6.910620E-05 -1.574694E-11 -8.087299E-05 -9.713952E-12 -9.500799E-06  1.468976E-12 -1.176680E-05  0.000000E+00  0.000000E+00  0.000000E+00  0.000000E+00  0.000000E+00  0.000000E+00  0.000000E+00                                                                                                                                                                                                                                                                                                                                                                                                                                                                                              
  1.250000E+02  1.250000E+02 -4.725000E+03 -9.437471E+07 -8.262591E+07 -1.061500E+08  9.258171E-03  4.865432E+04 -4.257344E-02  7.528280E-05  8.197547E-12 -1.251057E-04  2.154666E-12  1.132339E-05 -7.379396E-12 -4.982289E-05  0.000000E+00  0.000000E+00  0.000000E+00  0.000000E+00  0.000000E+00  0.000000E+00  0.000000E+00                                                                                                                                                                                                                                                                                                                                                                                                                                                                                              
  3.750000E+02  1.250000E+02 -4.725000E+03 -9.436764E+07 -8.242649E+07 -1.058011E+08 -6.889726E-03  1.677806E+05  3.291522E-02  5.258267E-05  5.537925E-12 -1.227062E-04 -1.603455E-12  3.904781E-05  5.705305E-12 -7.012352E-05  0.000000E+00  0.000000E+00  0.000000E+00  0.000000E+00  0.000000E+00  0.000000E+00  0.000000E+00                                                                                                                                                                                                                                                                                                                                                                                                                                                                                              
  6.250000E+02  1.250000E+02 -4.725000E+03 -9.438515E+07 -8.197523E+07 -1.049439E+08  5.988054E-02  3.470244E+05  6.521412E-02 -8.047965E-07  1.050082E-11 -1.098573E-04  1.393608E-11  8.076345E-05  1.130378E-11 -1.106621E-04  0.000000E+00  0.000000E+00  0.000000E+00  0.000000E+00  0.000000E+00  0.000000E+00  0.000000E+00                                                                                                                                                                                                                                                                                                                                                                                                                                                                                              
  8.750000E+02  1.250000E+02 -4.725000E+03 -9.475725E+07 -8.143815E+07 -1.037192E+08  8.285794E-02  3.157573E+05 -3.734352E-02 -9.806936E-05  8.806136E-12 -8.257920E-05  1.928364E-11  7.348661E-05 -6.472877E-12 -1.806485E-04  0.000000E+00  0.000000E+00  0.000000E+00  0.000000E+00  0.000000E+00  0.000000E+00  0.000000E+00                                                                                                                                                                                                                                                                                                                                                                                                                                                                                              
  1.050000E+03  1.250000E+02 -4.725000E+03 -9.474473E+07 -8.100322E+07 -1.028905E+08  3.068748E-02  1.995115E-02 -4.990753E-02 -1.449565E-04  7.061689E-13 -6.644062E-05  7.141939E-12  4.643258E-12 -8.650638E-12 -2.113971E-04  0.000000E+00  0.000000E+00  0.000000E+00  0.000000E+00  0.000000E+00  0.000000E+00  0.000000E+00                                                                                                                                                                                                                                                                                                                                                                                                                                                                                              
  1.225000E+03  1.250000E+02 -4.725000E+03 -9.475725E+07 -8.143815E+07 -1.037192E+08 -1.102365E-02 -3.157573E+05 -2.042605E-02 -9.806936E-05 -5.454517E-12 -8.257918E-05 -2.565549E-12 -7.348661E-05 -3.540516E-12 -1.806485E-04  0.000000E+00  0.000000E+00  0.000000E+00  0.000000E+00  0.000000E+00  0.000000E+00  0.000000E+00                                                                                                                                                                                                                                                                                                                                                                                                                                                                                              
  1.475000E+03  1.250000E+02 -4.725000E+03 -9.438515E+07 -8.197523E+07 -1.049439E+08 -3.829071E-02 -3.470245E+05 -4.986942E-02 -8.048050E-07 -1.416522E-11 -1.098573E-04 -8.911449E-12 -8.076347E-05 -8.644032E-12 -1.106621E-04  0.000000E+00  0.000000E+00  0.000000E+00  0.000000E+00  0.000000E+00  0.000000E+00  0.000000E+00                                                                                                                                                                                                                                                                                                                                                                                                                                                                                              
  1.725000E+03  1.250000E+02 -4.725000E+03 -9.436764E+07 -8.242649E+07 -1.058011E+08 -4.475624E-02 -1.677807E+05 -2.108429E-02  5.258266E-05 -2.219113E-11 -1.227062E-04 -1.041618E-11 -3.904781E-05 -3.654609E-12 -7.012357E-05  0.000000E+00  0.000000E+00  0.000000E+00  0.000000E+00  0.000000E+00  0.000000E+00  0.000000E+00                                                                                                                                                                                                                                                                                                                                                                                                                                                                                              