Title="TREACTMECH V1.0-OMP-MPI stress-strain.tec: Total Stresses (Pa), Strains"                                                                                                                                                                                                                                                                                                                                                                                                                                                                                                                                                                                                                                                                                                                                                 
Variables= "X(m)"     "Y(m)"      "Z(m)"    "Sigma_xx"    "Sigma_yy"    "Sigma_zz"    "Sigma_yz"    "Sigma_xz"    "Sigma_xy"   "Strain_xx"   "Strain_yy"   "Strain_zz"   "Strain_yz"   "Strain_xz"   "Strain_xy"  "Vol_Strain"   "E_fail_xx"   "E_fail_yy"   "E_fail_zz"  "E_fail_yz2"  "E_fail_xz2"  "E_fail_xy2"  "E_fail_vol"                                                                                                                                                                                                                                                                                                                                                                                                                                                                                                
Zone T= "5.18400000E+05 sec" I=     9 J=    10 K=    23 F=Point
  1.250000E+02  1.250000E+02 -5.425000E+03 -1.074375E+08 -9.391607E+07 -1.197739E+08  4.717347E-03  6.109867E+03 -3.297936E-03  6.090159E-05 -1.482795E-12 -8.367760E-05  1.097874E-12  1.421957E-06 -5.716423E-13 -2.277602E-05  0.000000E+00  0.000000E+00  0.000000E+00  0.000000E+00  0.000000E+00  0.000000E+00  0.000000E+00                                                                                                                                                                                                                                                                                                                                                                                                                                                                                              
  3.750000E+02  1.250000E+02 -5.425000E+03 -1.074810E+08 -9.371887E+07 -1.193764E+08  1.877845E-03  2.124228E+04  1.132698E-02  3.404551E-05 -8.199511E-13 -7.682170E-05  4.370334E-13  4.943743E-06  1.963342E-12 -4.277619E-05  0.000000E+00  0.000000E+00  0.000000E+00  0.000000E+00  0.000000E+00  0.000000E+00  0.000000E+00                                                                                                                                                                                                                                                                                                                                                                                                                                                                                              
  6.250000E+02  1.250000E+02 -5.425000E+03 -1.075759E+08 -9.337613E+07 -1.186664E+08 -2.656997E-03  3.359011E+04 -2.840301E-03 -1.432752E-05 -1.540231E-13 -6.325570E-05 -6.183664E-13  7.817470E-06 -4.923188E-13 -7.758321E-05  0.000000E+00  0.000000E+00  0.000000E+00  0.000000E+00  0.000000E+00  0.000000E+00  0.000000E+00                                                                                                                                                                                                                                                                                                                                                                                                                                                                                              
  8.750000E+02  1.250000E+02 -5.425000E+03 -1.076806E+08 -9.303364E+07 -1.179481E+08 -8.418120E-04  2.445871E+04 -1.029286E-02 -6.356753E-05 -1.406236E-12 -4.903637E-05 -1.959160E-13  5.692307E-06 -1.784095E-12 -1.126039E-04  0.000000E+00  0.000000E+00  0.000000E+00  0.000000E+00  0.000000E+00  0.000000E+00  0.000000E+00                                                                                                                                                                                                                                                                                                                                                                                                                                                                                              
  1.050000E+03  1.250000E+02 -5.425000E+03 -1.077279E+08 -9.288240E+07 -1.176377E+08 -2.433755E-03 -3.578454E-02  3.112773E-02 -8.526030E-05 -1.009528E-12 -4.309929E-05 -5.664110E-13 -8.328183E-12  5.395473E-12 -1.283596E-04  0.000000E+00  0.000000E+00  0.000000E+00  0.000000E+00  0.000000E+00  0.000000E+00  0.000000E+00                                                                                                                                                                                                                                                                                                                                                                                                                                                                                              
  1.225000E+03  1.250000E+02 -5.425000E+03 -1.076806E+08 -9.303364E+07 -1.179481E+08 -1.148935E-03 -2.445871E+04  4.900458E-03 -6.356753E-05  6.716459E-13 -4.903637E-05 -2.673933E-13 -5.692308E-06  8.494126E-13 -1.126039E-04  0.000000E+00  0.000000E+00  0.000000E+00  0.000000E+00  0.000000E+00  0.000000E+00  0.000000E+00                                                                                                                                                                                                                                                                                                                                                                                                                                                                                              
  1.475000E+03  1.250000E+02 -5.425000E+03 -1.075759E+08 -9.337613E+07 -1.186664E+08  7.443100E-03 -3.359010E+04 -5.421308E-03 -1.432751E-05  4.579013E-13 -6.325570E-05  1.732243E-12 -7.817468E-06 -9.396933E-13 -7.758321E-05  0.000000E+00  0.000000E+00  0.000000E+00  0.000000E+00  0.000000E+00  0.000000E+00  0.000000E+00                                                                                                                                                                                                                                                                                                                                                                                                                                                                                              
  1.725000E+03  1.250000E+02 -5.425000E+03 -1.074810E+08 -9.371887E+07 -1.193764E+08  7.289235E-03 -2.124229E+04  6.622066E-03  3.404552E-05  5.389343E-13 -7.682171E-05  1.696434E-12 -4.943746E-06  1.147825E-12 -4.277619E-05  0.000000E+00  0.000000E+00  0.000000E+00  0.000000E+00  0.000000E+00  0.000000E+00  0.000000E+00                                                                                                                                                                                                                                                                                                                                                                                                                                                                                              
  1.975000E+03  1.250000E+02 -5.425000E+03 -1.074375E+08 -9.391607E+07 -1.197739E+08  2.457144E-03 -6.109863E+03  3.760121E-03  6.090159E-05  1.449965E-12 -8.367761E-05  5.718544E-13 -1.421957E-06  6.517543E-13 -2.277602E-05  0.000000E+00  0.000000E+00  0.000000E+00  0.000000E+00  0.000000E+00  0.000000E+00  0.000000E+00                                                                                                                                                                                                                                                                                                                                                                                                                                                                                              
  1.250000E+02  1.250000E+02 -5.225000E+03 -1.038918E+08 -9.084944E+07 -1.158500E+08  5.122617E-03  2.146709E+04  2.411157E-04  6.290960E-05 -5.994818E-13 -7.852514E-05  1.192193E-12  4.996065E-06  4.179339E-14 -1.561554E-05  0.000000E+00  0.000000E+00  0.000000E+00  0.000000E+00  0.000000E+00  0.000000E+00  0.000000E+00                                                                                                                                                                                                                                                                                                                                                                                                                                                                                              
  3.750000E+02  1.250000E+02 -5.225000E+03 -1.039284E+08 -9.065086E+07 -1.154614E+08  2.214830E-03  6.756815E+04  2.647175E-03  3.630164E-05 -4.870464E-13 -7.295979E-05  5.154604E-13  1.572523E-05  4.588436E-13 -3.665815E-05  0.000000E+00  0.000000E+00  0.000000E+00  0.000000E+00  0.000000E+00  0.000000E+00  0.000000E+00                                                                                                                                                                                                                                                                                                                                                                                                                                                                                              
  6.250000E+02  1.250000E+02 -5.225000E+03 -1.039950E+08 -9.027768E+07 -1.147287E+08  5.519148E-03  1.051758E+05  4.741041E-03 -1.336771E-05  3.396001E-14 -6.202335E-05  1.284479E-12  2.447770E-05  8.217805E-13 -7.539106E-05  0.000000E+00  0.000000E+00  0.000000E+00  0.000000E+00  0.000000E+00  0.000000E+00  0.000000E+00                                                                                                                                                                                                                                                                                                                                                                                                                                                                                              
  8.750000E+02  1.250000E+02 -5.225000E+03 -1.040834E+08 -8.988444E+07 -1.139484E+08  1.772508E-02  7.471140E+04 -2.592385E-03 -6.752896E-05  2.406020E-13 -5.020880E-05  4.125182E-12  1.738768E-05 -4.493467E-13 -1.177378E-04  0.000000E+00  0.000000E+00  0.000000E+00  0.000000E+00  0.000000E+00  0.000000E+00  0.000000E+00                                                                                                                                                                                                                                                                                                                                                                                                                                                                                              
  1.050000E+03  1.250000E+02 -5.225000E+03 -1.041058E+08 -8.969336E+07 -1.135870E+08  1.316832E-02  7.609583E-03  1.309410E-03 -9.157289E-05 -9.691850E-16 -4.515402E-05  3.064681E-12  1.770988E-12  2.269644E-13 -1.367269E-04  0.000000E+00  0.000000E+00  0.000000E+00  0.000000E+00  0.000000E+00  0.000000E+00  0.000000E+00                                                                                                                                                                                                                                                                                                                                                                                                                                                                                              
  1.225000E+03  1.250000E+02 -5.225000E+03 -1.040834E+08 -8.988444E+07 -1.139484E+08  1.244538E-03 -7.471141E+04  6.594776E-03 -6.752895E-05  5.103301E-13 -5.020879E-05  2.896430E-13 -1.738769E-05  1.143094E-12 -1.177377E-04  0.000000E+00  0.000000E+00  0.000000E+00  0.000000E+00  0.000000E+00  0.000000E+00  0.000000E+00                                                                                                                                                                                                                                                                                                                                                                                                                                                                                              
  1.475000E+03  1.250000E+02 -5.225000E+03 -1.039950E+08 -9.027768E+07 -1.147287E+08  1.899002E-03 -1.051758E+05  2.005178E-04 -1.336771E-05  1.125010E-12 -6.202335E-05  4.419573E-13 -2.447770E-05  3.475642E-14 -7.539106E-05  0.000000E+00  0.000000E+00  0.000000E+00  0.000000E+00  0.000000E+00  0.000000E+00  0.000000E+00                                                                                                                                                                                                                                                                                                                                                                                                                                                                                              
  1.725000E+03  1.250000E+02 -5.225000E+03 -1.039284E+08 -9.065086E+07 -1.154614E+08  4.483217E-03 -6.756817E+04  1.955789E-03  3.630165E-05  1.435380E-12 -7.295980E-05  1.043385E-12 -1.572523E-05  3.390034E-13 -3.665815E-05  0.000000E+00  0.000000E+00  0.000000E+00  0.000000E+00  0.000000E+00  0.000000E+00  0.000000E+00                                                                                                                                                                                                                                                                                                                                                                                                                                                                                              
  1.975000E+03  1.250000E+02 -5.225000E+03 -1.038918E+08 -9.084944E+07 -1.158500E+08  3.009199E-03 -2.146709E+04  1.285012E-03  6.290960E-05  1.807824E-12 -7.852514E-05  7.003349E-13 -4.996065E-06  2.227354E-13 -1.561554E-05  0.000000E+00  0.000000E+00  0.000000E+00  0.000000E+00  0.000000E+00  0.000000E+00  0.000000E+00                                                                                                                                                                                                                                                                                                                                                                                                                                                                                              
  1.250000E+02  1.250000E+02 -4.975000E+03 -9.939752E+07 -8.698467E+07 -1.109716E+08 -1.723394E-02  3.762265E+04  1.247677E-02  6.764393E-05 -2.236990E-12 -7.787674E-05 -4.010878E-12  8.755969E-06  2.162640E-12 -1.023281E-05  0.000000E+00  0.000000E+00  0.000000E+00  0.000000E+00  0.000000E+00  0.000000E+00  0.000000E+00                                                                                                                                                                                                                                                                                                                                                                                                                                                                                              
  3.750000E+02  1.250000E+02 -4.975000E+03 -9.942690E+07 -8.678729E+07 -1.105889E+08  1.203375E-04  1.227364E+05  1.184408E-02  4.178665E-05 -6.699099E-13 -7.267307E-05  2.800632E-14  2.856460E-05  2.052974E-12 -3.088641E-05  0.000000E+00  0.000000E+00  0.000000E+00  0.000000E+00  0.000000E+00  0.000000E+00  0.000000E+00                                                                                                                                                                                                                                                                                                                                                                                                                                                                                              
  6.250000E+02  1.250000E+02 -4.975000E+03 -9.951828E+07 -8.640230E+07 -1.098259E+08  7.397196E-03  1.900793E+05  7.153745E-03 -1.200370E-05  7.059730E-13 -6.179226E-05  1.721559E-12  4.423740E-05  1.239982E-12 -7.379596E-05  0.000000E+00  0.000000E+00  0.000000E+00  0.000000E+00  0.000000E+00  0.000000E+00  0.000000E+00                                                                                                                                                                                                                                                                                                                                                                                                                                                                                              
  8.750000E+02  1.250000E+02 -4.975000E+03 -9.959460E+07 -8.591987E+07 -1.088824E+08  3.276939E-03  1.471930E+05  3.345223E-04 -7.542311E-05  1.468521E-12 -4.807835E-05  7.626465E-13  3.425642E-05  5.798387E-14 -1.235015E-04  0.000000E+00  0.000000E+00  0.000000E+00  0.000000E+00  0.000000E+00  0.000000E+00  0.000000E+00                                                                                                                                                                                                                                                                                                                                                                                                                                                                                              
  1.050000E+03  1.250000E+02 -4.975000E+03 -9.969999E+07 -8.570900E+07 -1.084462E+08  7.040721E-03 -1.126709E-02 -1.140447E-02 -1.100189E-04  1.310137E-12 -4.112009E-05  1.638596E-12 -2.622205E-12 -1.976774E-12 -1.511390E-04  0.000000E+00  0.000000E+00  0.000000E+00  0.000000E+00  0.000000E+00  0.000000E+00  0.000000E+00                                                                                                                                                                                                                                                                                                                                                                                                                                                                                              
  1.225000E+03  1.250000E+02 -4.975000E+03 -9.959460E+07 -8.591987E+07 -1.088824E+08  1.182784E-02 -1.471931E+05  2.294419E-03 -7.542311E-05  1.555651E-12 -4.807836E-05  2.752709E-12 -3.425644E-05  3.976992E-13 -1.235015E-04  0.000000E+00  0.000000E+00  0.000000E+00  0.000000E+00  0.000000E+00  0.000000E+00  0.000000E+00                                                                                                                                                                                                                                                                                                                                                                                                                                                                                              
  1.475000E+03  1.250000E+02 -4.975000E+03 -9.951828E+07 -8.640230E+07 -1.098259E+08  9.283648E-03 -1.900793E+05 -2.737618E-04 -1.200369E-05  2.264022E-12 -6.179228E-05  2.160596E-12 -4.423741E-05 -4.745204E-14 -7.379596E-05  0.000000E+00  0.000000E+00  0.000000E+00  0.000000E+00  0.000000E+00  0.000000E+00  0.000000E+00                                                                                                                                                                                                                                                                                                                                                                                                                                                                                              
  1.725000E+03  1.250000E+02 -4.975000E+03 -9.942690E+07 -8.678729E+07 -1.105889E+08  6.396947E-03 -1.227364E+05  4.529651E-04  4.178666E-05  2.642882E-12 -7.267308E-05  1.488770E-12 -2.856460E-05  7.851396E-14 -3.088642E-05  0.000000E+00  0.000000E+00  0.000000E+00  0.000000E+00  0.000000E+00  0.000000E+00  0.000000E+00                                                                                                                                                                                                                                                                                                                                                                                                                                                                                              
  1.975000E+03  1.250000E+02 -4.975000E+03 -9.939752E+07 -8.698467E+07 -1.109716E+08  1.080929E-02 -3.762267E+04  6.245421E-03  6.764393E-05  3.389071E-12 -7.787675E-05  2.515661E-12 -8.755974E-06  1.082540E-12 -1.023281E-05  0.000000E+00  0.000000E+00  0.000000E+00  0.000000E+00  0.000000E+00  0.000000E+00  0.000000E+00                                                                                                                                                                                                                                                                                                                                                                                                                                                                                              
  1.250000E+02  1.250000E+02 -4.725000E+03 -9.461893E+07 -8.285185E+07 -1.061134E+08  1.046899E-02  4.543385E+04 -1.089135E-02  7.369750E-05 -4.026580E-12 -1.023577E-04  2.436461E-12  1.057388E-05 -1.887833E-12 -2.866024E-05  0.000000E+00  0.000000E+00  0.000000E+00  0.000000E+00  0.000000E+00  0.000000E+00  0.000000E+00                                                                                                                                                                                                                                                                                                                                                                                                                                                                                              
  3.750000E+02  1.250000E+02 -4.725000E+03 -9.461333E+07 -8.265791E+07 -1.057734E+08 -5.821944E-03  1.558100E+05  4.018078E-02  5.134653E-05 -1.548002E-12 -1.002485E-04 -1.354949E-12  3.626187E-05  6.964668E-12 -4.890201E-05  0.000000E+00  0.000000E+00  0.000000E+00  0.000000E+00  0.000000E+00  0.000000E+00  0.000000E+00                                                                                                                                                                                                                                                                                                                                                                                                                                                                                              
  6.250000E+02  1.250000E+02 -4.725000E+03 -9.462481E+07 -8.221613E+07 -1.049387E+08  5.798782E-02  3.257059E+05  4.886410E-02 -6.972247E-07  6.146709E-12 -8.852969E-05  1.349558E-11  7.580197E-05  8.469777E-12 -8.922691E-05  0.000000E+00  0.000000E+00  0.000000E+00  0.000000E+00  0.000000E+00  0.000000E+00  0.000000E+00                                                                                                                                                                                                                                                                                                                                                                                                                                                                                              
  8.750000E+02  1.250000E+02 -4.725000E+03 -9.501292E+07 -8.171515E+07 -1.037732E+08  7.891637E-02  2.968397E+05 -3.307250E-02 -9.622017E-05  7.718824E-12 -6.325248E-05  1.836631E-11  6.908390E-05 -5.732566E-12 -1.594726E-04  0.000000E+00  0.000000E+00  0.000000E+00  0.000000E+00  0.000000E+00  0.000000E+00  0.000000E+00                                                                                                                                                                                                                                                                                                                                                                                                                                                                                              
  1.050000E+03  1.250000E+02 -4.725000E+03 -9.498128E+07 -8.128966E+07 -1.029676E+08  2.767836E-02  1.981167E-02 -3.435729E-02 -1.406332E-04  3.613804E-12 -4.829777E-05  6.441621E-12  4.610797E-12 -5.955264E-12 -1.889310E-04  0.000000E+00  0.000000E+00  0.000000E+00  0.000000E+00  0.000000E+00  0.000000E+00  0.000000E+00                                                                                                                                                                                                                                                                                                                                                                                                                                                                                              
  1.225000E+03  1.250000E+02 -4.725000E+03 -9.501292E+07 -8.171515E+07 -1.037732E+08 -1.002912E-02 -2.968397E+05 -6.919605E-03 -9.622017E-05  1.735944E-12 -6.325246E-05 -2.334091E-12 -6.908391E-05 -1.199398E-12 -1.594726E-04  0.000000E+00  0.000000E+00  0.000000E+00  0.000000E+00  0.000000E+00  0.000000E+00  0.000000E+00                                                                                                                                                                                                                                                                                                                                                                                                                                                                                              
  1.475000E+03  1.250000E+02 -4.725000E+03 -9.462481E+07 -8.221613E+07 -1.049387E+08 -3.223790E-02 -3.257060E+05 -1.202436E-02 -6.972194E-07  4.162655E-13 -8.852968E-05 -7.502768E-12 -7.580199E-05 -2.084222E-12 -8.922690E-05  0.000000E+00  0.000000E+00  0.000000E+00  0.000000E+00  0.000000E+00  0.000000E+00  0.000000E+00                                                                                                                                                                                                                                                                                                                                                                                                                                                                                              
  1.725000E+03  1.250000E+02 -4.725000E+03 -9.461333E+07 -8.265791E+07 -1.057734E+08 -3.611137E-02 -1.558100E+05  5.262482E-03  5.134654E-05  1.035396E-13 -1.002485E-04 -8.404247E-12 -3.626188E-05  9.121636E-13 -4.890201E-05  0.000000E+00  0.000000E+00  0.000000E+00  0.000000E+00  0.000000E+00  0.000000E+00  0.000000E+00                                                                                                                                                                                                                                                                                                                                                                                                                                                                                              