Title="TREACTMECH V1.0-OMP-MPI stress-strain.tec: Total Stresses (Pa), Strains"                                                                                                                                                                                                                                                                                                                                                                                                                                                                                                                                                                                                                                                                                                                                                 
Variables= "X(m)"     "Y(m)"      "Z(m)"    "Sigma_xx"    "Sigma_yy"    "Sigma_zz"    "Sigma_yz"    "Sigma_xz"    "Sigma_xy"   "Strain_xx"   "Strain_yy"   "Strain_zz"   "Strain_yz"   "Strain_xz"   "Strain_xy"  "Vol_Strain"   "E_fail_xx"   "E_fail_yy"   "E_fail_zz"  "E_fail_yz2"  "E_fail_xz2"  "E_fail_xy2"  "E_fail_vol"                                                                                                                                                                                                                                                                                                                                                                                                                                                                                                
Zone T= "3.15569000E+08 sec" I=     9 J=    10 K=    23 F=Point
  1.250000E+02  1.250000E+02 -5.425000E+03 -1.023141E+08 -9.022168E+07 -1.244146E+08  8.419073E+03  6.049134E+04  3.205265E+04  2.333867E-04  4.863716E-05 -7.574158E-04  1.959382E-06  1.407823E-05  5.555792E-06 -4.753919E-04  0.000000E+00  0.000000E+00  0.000000E+00  0.000000E+00  0.000000E+00  0.000000E+00  0.000000E+00                                                                                                                                                                                                                                                                                                                                                                                                                                                                                              
  3.750000E+02  1.250000E+02 -5.425000E+03 -1.028739E+08 -8.962407E+07 -1.227631E+08  2.639892E+04  2.372548E+05  6.782067E+04  1.365375E-04  5.809649E-05 -6.671241E-04  6.143855E-06  5.521663E-05  1.175558E-05 -4.724901E-04  0.000000E+00  0.000000E+00  0.000000E+00  0.000000E+00  0.000000E+00  0.000000E+00  0.000000E+00                                                                                                                                                                                                                                                                                                                                                                                                                                                                                              
  6.250000E+02  1.250000E+02 -5.425000E+03 -1.040680E+08 -8.861793E+07 -1.194665E+08  4.370457E+04  3.883736E+05  4.568650E+04 -5.433187E-05  6.835174E-05 -4.766281E-04  1.017142E-05  9.038671E-05  7.918994E-06 -4.626082E-04  0.000000E+00  0.000000E+00  0.000000E+00  0.000000E+00  0.000000E+00  0.000000E+00  0.000000E+00                                                                                                                                                                                                                                                                                                                                                                                                                                                                                              
  8.750000E+02  1.250000E+02 -5.425000E+03 -1.052596E+08 -8.764565E+07 -1.159587E+08  4.393225E+04  2.882501E+05  8.336035E+03 -2.485881E-04  7.211618E-05 -2.714660E-04  1.022441E-05  6.708484E-05  1.444913E-06 -4.479379E-04  0.000000E+00  0.000000E+00  0.000000E+00  0.000000E+00  0.000000E+00  0.000000E+00  0.000000E+00                                                                                                                                                                                                                                                                                                                                                                                                                                                                                              
  1.050000E+03  1.250000E+02 -5.425000E+03 -1.058676E+08 -8.730889E+07 -1.145382E+08  3.908512E+04 -2.087242E-02  5.854258E-03 -3.350213E-04  7.205255E-05 -1.854620E-04  9.096333E-06 -4.857665E-12  1.014738E-12 -4.484308E-04  0.000000E+00  0.000000E+00  0.000000E+00  0.000000E+00  0.000000E+00  0.000000E+00  0.000000E+00                                                                                                                                                                                                                                                                                                                                                                                                                                                                                              
  1.225000E+03  1.250000E+02 -5.425000E+03 -1.052596E+08 -8.764565E+07 -1.159587E+08  4.393222E+04 -2.882501E+05 -8.336030E+03 -2.485881E-04  7.211618E-05 -2.714660E-04  1.022440E-05 -6.708483E-05 -1.444912E-06 -4.479379E-04  0.000000E+00  0.000000E+00  0.000000E+00  0.000000E+00  0.000000E+00  0.000000E+00  0.000000E+00                                                                                                                                                                                                                                                                                                                                                                                                                                                                                              
  1.475000E+03  1.250000E+02 -5.425000E+03 -1.040680E+08 -8.861793E+07 -1.194665E+08  4.370451E+04 -3.883736E+05 -4.568648E+04 -5.433184E-05  6.835175E-05 -4.766280E-04  1.017141E-05 -9.038671E-05 -7.918990E-06 -4.626081E-04  0.000000E+00  0.000000E+00  0.000000E+00  0.000000E+00  0.000000E+00  0.000000E+00  0.000000E+00                                                                                                                                                                                                                                                                                                                                                                                                                                                                                              
  1.725000E+03  1.250000E+02 -5.425000E+03 -1.028739E+08 -8.962407E+07 -1.227631E+08  2.639887E+04 -2.372548E+05 -6.782065E+04  1.365376E-04  5.809650E-05 -6.671241E-04  6.143845E-06 -5.521663E-05 -1.175558E-05 -4.724900E-04  0.000000E+00  0.000000E+00  0.000000E+00  0.000000E+00  0.000000E+00  0.000000E+00  0.000000E+00                                                                                                                                                                                                                                                                                                                                                                                                                                                                                              
  1.975000E+03  1.250000E+02 -5.425000E+03 -1.023141E+08 -9.022168E+07 -1.244146E+08  8.419017E+03 -6.049135E+04 -3.205263E+04  2.333867E-04  4.863718E-05 -7.574158E-04  1.959369E-06 -1.407823E-05 -5.555789E-06 -4.753919E-04  0.000000E+00  0.000000E+00  0.000000E+00  0.000000E+00  0.000000E+00  0.000000E+00  0.000000E+00                                                                                                                                                                                                                                                                                                                                                                                                                                                                                              
  1.250000E+02  1.250000E+02 -5.225000E+03 -9.898315E+07 -8.751764E+07 -1.207493E+08  2.093528E+04  2.007057E+05  4.360375E+04  2.459329E-04  4.636201E-05 -7.455271E-04  4.872295E-06  4.671050E-05  7.557983E-06 -4.532322E-04  0.000000E+00  0.000000E+00  0.000000E+00  0.000000E+00  0.000000E+00  0.000000E+00  0.000000E+00                                                                                                                                                                                                                                                                                                                                                                                                                                                                                              
  3.750000E+02  1.250000E+02 -5.225000E+03 -9.948667E+07 -8.690791E+07 -1.193330E+08  8.727169E+04  7.860852E+05  9.761116E+04  1.567507E-04  5.988914E-05 -6.730000E-04  2.031086E-05  1.829467E-04  1.691927E-05 -4.563602E-04  0.000000E+00  0.000000E+00  0.000000E+00  0.000000E+00  0.000000E+00  0.000000E+00  0.000000E+00                                                                                                                                                                                                                                                                                                                                                                                                                                                                                              
  6.250000E+02  1.250000E+02 -5.225000E+03 -1.006167E+08 -8.572573E+07 -1.157834E+08  1.569665E+05  1.503849E+06  5.717503E+04 -4.109201E-05  7.399001E-05 -4.739367E-04  3.653102E-05  3.499928E-04  9.910338E-06 -4.410387E-04  0.000000E+00  0.000000E+00  0.000000E+00  0.000000E+00  0.000000E+00  0.000000E+00  0.000000E+00                                                                                                                                                                                                                                                                                                                                                                                                                                                                                              
  8.750000E+02  1.250000E+02 -5.225000E+03 -1.023177E+08 -8.468472E+07 -1.116342E+08  1.576022E+05  1.106114E+06 -6.890633E+03 -2.881415E-04  7.699928E-05 -2.232903E-04  3.667897E-05  2.574273E-04 -1.194376E-06 -4.344326E-04  0.000000E+00  0.000000E+00  0.000000E+00  0.000000E+00  0.000000E+00  0.000000E+00  0.000000E+00                                                                                                                                                                                                                                                                                                                                                                                                                                                                                              
  1.050000E+03  1.250000E+02 -5.225000E+03 -1.024833E+08 -8.402102E+07 -1.095576E+08  1.371845E+05  9.906196E-02 -5.409103E-02 -3.672504E-04  7.531592E-05 -1.122234E-04  3.192712E-05  2.305482E-11 -9.375778E-12 -4.041578E-04  0.000000E+00  0.000000E+00  0.000000E+00  0.000000E+00  0.000000E+00  0.000000E+00  0.000000E+00                                                                                                                                                                                                                                                                                                                                                                                                                                                                                              
  1.225000E+03  1.250000E+02 -5.225000E+03 -1.023177E+08 -8.468472E+07 -1.116342E+08  1.576022E+05 -1.106113E+06  6.890607E+03 -2.881415E-04  7.699928E-05 -2.232903E-04  3.667896E-05 -2.574273E-04  1.194372E-06 -4.344325E-04  0.000000E+00  0.000000E+00  0.000000E+00  0.000000E+00  0.000000E+00  0.000000E+00  0.000000E+00                                                                                                                                                                                                                                                                                                                                                                                                                                                                                              
  1.475000E+03  1.250000E+02 -5.225000E+03 -1.006167E+08 -8.572573E+07 -1.157834E+08  1.569664E+05 -1.503849E+06 -5.717500E+04 -4.109199E-05  7.399001E-05 -4.739367E-04  3.653101E-05 -3.499928E-04 -9.910333E-06 -4.410387E-04  0.000000E+00  0.000000E+00  0.000000E+00  0.000000E+00  0.000000E+00  0.000000E+00  0.000000E+00                                                                                                                                                                                                                                                                                                                                                                                                                                                                                              
  1.725000E+03  1.250000E+02 -5.225000E+03 -9.948667E+07 -8.690791E+07 -1.193330E+08  8.727164E+04 -7.860852E+05 -9.761115E+04  1.567507E-04  5.988915E-05 -6.730000E-04  2.031085E-05 -1.829467E-04 -1.691927E-05 -4.563602E-04  0.000000E+00  0.000000E+00  0.000000E+00  0.000000E+00  0.000000E+00  0.000000E+00  0.000000E+00                                                                                                                                                                                                                                                                                                                                                                                                                                                                                              
  1.975000E+03  1.250000E+02 -5.225000E+03 -9.898315E+07 -8.751764E+07 -1.207493E+08  2.093523E+04 -2.007056E+05 -4.360375E+04  2.459330E-04  4.636201E-05 -7.455271E-04  4.872284E-06 -4.671049E-05 -7.557983E-06 -4.532321E-04  0.000000E+00  0.000000E+00  0.000000E+00  0.000000E+00  0.000000E+00  0.000000E+00  0.000000E+00                                                                                                                                                                                                                                                                                                                                                                                                                                                                                              
  1.250000E+02  1.250000E+02 -4.975000E+03 -9.477226E+07 -8.416841E+07 -1.164225E+08  1.453986E+04  1.925616E+05  3.697608E+04  2.628232E-04  3.839909E-05 -7.559658E-04  3.383881E-06  4.481512E-05  6.409187E-06 -4.547435E-04  0.000000E+00  0.000000E+00  0.000000E+00  0.000000E+00  0.000000E+00  0.000000E+00  0.000000E+00                                                                                                                                                                                                                                                                                                                                                                                                                                                                                              
  3.750000E+02  1.250000E+02 -4.975000E+03 -9.471599E+07 -8.349583E+07 -1.157652E+08  1.369709E+05  1.238776E+06  1.325780E+05  2.249785E-04  6.017258E-05 -7.463715E-04  3.187743E-05  2.883021E-04  2.298018E-05 -4.612204E-04  0.000000E+00  0.000000E+00  0.000000E+00  0.000000E+00  0.000000E+00  0.000000E+00  0.000000E+00                                                                                                                                                                                                                                                                                                                                                                                                                                                                                              
  6.250000E+02  1.250000E+02 -4.975000E+03 -9.631772E+07 -8.219197E+07 -1.122275E+08  3.233202E+05  3.179438E+06  7.931439E+04 -8.788834E-06  9.072821E-05 -5.441032E-04  7.524674E-05  7.399548E-04  1.374783E-05 -4.621639E-04  0.000000E+00  0.000000E+00  0.000000E+00  0.000000E+00  0.000000E+00  0.000000E+00  0.000000E+00                                                                                                                                                                                                                                                                                                                                                                                                                                                                                              
  8.750000E+02  1.250000E+02 -4.975000E+03 -9.816864E+07 -8.036703E+07 -1.051027E+08  2.811320E+05  3.022038E+06 -9.554206E+04 -3.472988E-04  8.578683E-05 -1.159584E-04  6.542823E-05  7.033230E-04 -1.656062E-05 -3.774704E-04  0.000000E+00  0.000000E+00  0.000000E+00  0.000000E+00  0.000000E+00  0.000000E+00  0.000000E+00                                                                                                                                                                                                                                                                                                                                                                                                                                                                                              
  1.050000E+03  1.250000E+02 -4.975000E+03 -1.018488E+08 -8.073827E+07 -1.022969E+08  1.571547E+05  5.625552E-02 -1.280856E-01 -6.585705E-04  6.847528E-05  1.294963E-04  3.657482E-05  1.309242E-11 -2.220151E-11 -4.605990E-04  0.000000E+00  0.000000E+00  0.000000E+00  0.000000E+00  0.000000E+00  0.000000E+00  0.000000E+00                                                                                                                                                                                                                                                                                                                                                                                                                                                                                              
  1.225000E+03  1.250000E+02 -4.975000E+03 -9.816864E+07 -8.036703E+07 -1.051027E+08  2.811320E+05 -3.022038E+06  9.554202E+04 -3.472988E-04  8.578682E-05 -1.159584E-04  6.542823E-05 -7.033230E-04  1.656062E-05 -3.774704E-04  0.000000E+00  0.000000E+00  0.000000E+00  0.000000E+00  0.000000E+00  0.000000E+00  0.000000E+00                                                                                                                                                                                                                                                                                                                                                                                                                                                                                              
  1.475000E+03  1.250000E+02 -4.975000E+03 -9.631772E+07 -8.219197E+07 -1.122275E+08  3.233202E+05 -3.179438E+06 -7.931433E+04 -8.788820E-06  9.072821E-05 -5.441032E-04  7.524673E-05 -7.399548E-04 -1.374782E-05 -4.621639E-04  0.000000E+00  0.000000E+00  0.000000E+00  0.000000E+00  0.000000E+00  0.000000E+00  0.000000E+00                                                                                                                                                                                                                                                                                                                                                                                                                                                                                              
  1.725000E+03  1.250000E+02 -4.975000E+03 -9.471599E+07 -8.349583E+07 -1.157652E+08  1.369709E+05 -1.238776E+06 -1.325780E+05  2.249785E-04  6.017258E-05 -7.463714E-04  3.187743E-05 -2.883021E-04 -2.298018E-05 -4.612203E-04  0.000000E+00  0.000000E+00  0.000000E+00  0.000000E+00  0.000000E+00  0.000000E+00  0.000000E+00                                                                                                                                                                                                                                                                                                                                                                                                                                                                                              
  1.975000E+03  1.250000E+02 -4.975000E+03 -9.477226E+07 -8.416841E+07 -1.164225E+08  1.453987E+04 -1.925615E+05 -3.697608E+04  2.628232E-04  3.839909E-05 -7.559658E-04  3.383884E-06 -4.481510E-05 -6.409188E-06 -4.547435E-04  0.000000E+00  0.000000E+00  0.000000E+00  0.000000E+00  0.000000E+00  0.000000E+00  0.000000E+00                                                                                                                                                                                                                                                                                                                                                                                                                                                                                              
  1.250000E+02  1.250000E+02 -4.725000E+03 -9.004125E+07 -8.059048E+07 -1.118227E+08  4.041195E+03  3.227446E+05  4.473260E+04  3.027478E-04  2.830307E-05 -7.648433E-04  9.405128E-07  7.511277E-05  7.753650E-06 -4.337925E-04  0.000000E+00  0.000000E+00  0.000000E+00  0.000000E+00  0.000000E+00  0.000000E+00  0.000000E+00                                                                                                                                                                                                                                                                                                                                                                                                                                                                                              
  3.750000E+02  1.250000E+02 -4.725000E+03 -9.090598E+07 -8.129072E+07 -1.138103E+08 -9.086469E+04  7.987720E+05  1.639039E+04  2.841648E-04  3.000422E-05 -8.852656E-04 -2.114706E-05  1.858993E-04  2.841002E-06 -5.710966E-04  0.000000E+00  0.000000E+00  0.000000E+00  0.000000E+00  0.000000E+00  0.000000E+00  0.000000E+00                                                                                                                                                                                                                                                                                                                                                                                                                                                                                              
  6.250000E+02  1.250000E+02 -4.725000E+03 -9.045540E+07 -7.960913E+07 -1.101692E+08 -3.295651E+05  5.680953E+06  5.653986E+04  1.736114E-04  3.889898E-05 -7.288791E-04 -7.670012E-05  1.322136E-03  9.800243E-06 -5.163687E-04  0.000000E+00  0.000000E+00  0.000000E+00  0.000000E+00  0.000000E+00  0.000000E+00  0.000000E+00                                                                                                                                                                                                                                                                                                                                                                                                                                                                                              
  8.750000E+02  1.250000E+02 -4.725000E+03 -9.723613E+07 -7.691219E+07 -9.820977E+07 -9.397715E+04  6.115003E+06 -3.369013E+04 -6.592363E-04  4.591951E-05  4.857182E-05 -2.187143E-05  1.423153E-03 -5.839622E-06 -5.647450E-04  0.000000E+00  0.000000E+00  0.000000E+00  0.000000E+00  0.000000E+00  0.000000E+00  0.000000E+00                                                                                                                                                                                                                                                                                                                                                                                                                                                                                              
  1.050000E+03  1.250000E+02 -4.725000E+03 -8.903377E+07 -7.062772E+07 -8.604671E+07  2.474863E+05  3.940318E-02 -8.605812E-02 -5.064377E-04  4.277978E-05  5.369220E-04  5.759781E-05  9.170356E-12 -1.491674E-11  7.326409E-05  0.000000E+00  0.000000E+00  0.000000E+00  0.000000E+00  0.000000E+00  0.000000E+00  0.000000E+00                                                                                                                                                                                                                                                                                                                                                                                                                                                                                              
  1.225000E+03  1.250000E+02 -4.725000E+03 -9.723613E+07 -7.691219E+07 -9.820977E+07 -9.397712E+04 -6.115003E+06  3.369008E+04 -6.592363E-04  4.591950E-05  4.857182E-05 -2.187142E-05 -1.423153E-03  5.839613E-06 -5.647450E-04  0.000000E+00  0.000000E+00  0.000000E+00  0.000000E+00  0.000000E+00  0.000000E+00  0.000000E+00                                                                                                                                                                                                                                                                                                                                                                                                                                                                                              
  1.475000E+03  1.250000E+02 -4.725000E+03 -9.045540E+07 -7.960913E+07 -1.101692E+08 -3.295651E+05 -5.680953E+06 -5.653979E+04  1.736113E-04  3.889898E-05 -7.288791E-04 -7.670011E-05 -1.322136E-03 -9.800230E-06 -5.163688E-04  0.000000E+00  0.000000E+00  0.000000E+00  0.000000E+00  0.000000E+00  0.000000E+00  0.000000E+00                                                                                                                                                                                                                                                                                                                                                                                                                                                                                              
  1.725000E+03  1.250000E+02 -4.725000E+03 -9.090598E+07 -8.129072E+07 -1.138103E+08 -9.086467E+04 -7.987720E+05 -1.639037E+04  2.841648E-04  3.000422E-05 -8.852656E-04 -2.114706E-05 -1.858993E-04 -2.840997E-06 -5.710966E-04  0.000000E+00  0.000000E+00  0.000000E+00  0.000000E+00  0.000000E+00  0.000000E+00  0.000000E+00                                                                                                                                                                                                                                                                                                                                                                                                                                                                                              