Title="TREACTMECH V1.0-OMP-MPI stress-strain.tec: Total Stresses (Pa), Strains"                                                                                                                                                                                                                                                                                                                                                                                                                                                                                                                                                                                                                                                                                                                                                 
Variables= "X(m)"     "Y(m)"      "Z(m)"    "Sigma_xx"    "Sigma_yy"    "Sigma_zz"    "Sigma_yz"    "Sigma_xz"    "Sigma_xy"   "Strain_xx"   "Strain_yy"   "Strain_zz"   "Strain_yz"   "Strain_xz"   "Strain_xy"  "Vol_Strain"   "E_fail_xx"   "E_fail_yy"   "E_fail_zz"  "E_fail_yz2"  "E_fail_xz2"  "E_fail_xy2"  "E_fail_vol"                                                                                                                                                                                                                                                                                                                                                                                                                                                                                                
Zone T= "1.00000000E+09 sec" I=     9 J=    10 K=    23 F=Point
  1.250000E+02  1.250000E+02 -5.425000E+03 -1.009200E+08 -9.057328E+07 -1.253422E+08  2.552873E+03  1.767027E+05 -2.023011E+03  3.410648E-04  5.013541E-06 -8.509588E-04  5.941336E-07  4.112426E-05 -3.506553E-07 -5.048805E-04  0.000000E+00  0.000000E+00  0.000000E+00  0.000000E+00  0.000000E+00  0.000000E+00  0.000000E+00                                                                                                                                                                                                                                                                                                                                                                                                                                                                                              
  3.750000E+02  1.250000E+02 -5.425000E+03 -1.020446E+08 -8.982271E+07 -1.221069E+08  2.530602E+03  4.894581E+05 -6.860615E+03  1.718713E-04  4.337424E-06 -6.467933E-04  5.889503E-07  1.139122E-04 -1.189173E-06 -4.705846E-04  0.000000E+00  0.000000E+00  0.000000E+00  0.000000E+00  0.000000E+00  0.000000E+00  0.000000E+00                                                                                                                                                                                                                                                                                                                                                                                                                                                                                              
  6.250000E+02  1.250000E+02 -5.425000E+03 -1.038332E+08 -8.860163E+07 -1.169117E+08  8.106812E+02  5.680769E+05 -1.007901E+04 -1.008853E-04  2.861004E-06 -3.221145E-04  1.886709E-07  1.322093E-04 -1.747028E-06 -4.201388E-04  0.000000E+00  0.000000E+00  0.000000E+00  0.000000E+00  0.000000E+00  0.000000E+00  0.000000E+00                                                                                                                                                                                                                                                                                                                                                                                                                                                                                              
  8.750000E+02  1.250000E+02 -5.425000E+03 -1.053092E+08 -8.756529E+07 -1.126454E+08 -1.298712E+03  2.841768E+05 -6.340441E+03 -3.305917E-04  1.374380E-06 -6.201618E-05 -3.022509E-07  6.613685E-05 -1.099010E-06 -3.912335E-04  0.000000E+00  0.000000E+00  0.000000E+00  0.000000E+00  0.000000E+00  0.000000E+00  0.000000E+00                                                                                                                                                                                                                                                                                                                                                                                                                                                                                              
  1.050000E+03  1.250000E+02 -5.425000E+03 -1.057240E+08 -8.715335E+07 -1.111428E+08 -2.014590E+03 -2.145676E-02 -5.093704E-04 -4.072952E-04  8.118389E-07  2.408538E-05 -4.688582E-07 -4.993660E-12 -8.829087E-14 -3.823980E-04  0.000000E+00  0.000000E+00  0.000000E+00  0.000000E+00  0.000000E+00  0.000000E+00  0.000000E+00                                                                                                                                                                                                                                                                                                                                                                                                                                                                                              
  1.225000E+03  1.250000E+02 -5.425000E+03 -1.053092E+08 -8.756529E+07 -1.126454E+08 -1.298722E+03 -2.841768E+05  6.340441E+03 -3.305917E-04  1.374381E-06 -6.201618E-05 -3.022533E-07 -6.613684E-05  1.099010E-06 -3.912335E-04  0.000000E+00  0.000000E+00  0.000000E+00  0.000000E+00  0.000000E+00  0.000000E+00  0.000000E+00                                                                                                                                                                                                                                                                                                                                                                                                                                                                                              
  1.475000E+03  1.250000E+02 -5.425000E+03 -1.038332E+08 -8.860163E+07 -1.169117E+08  8.106544E+02 -5.680769E+05  1.007903E+04 -1.008853E-04  2.861007E-06 -3.221145E-04  1.886647E-07 -1.322093E-04  1.747031E-06 -4.201388E-04  0.000000E+00  0.000000E+00  0.000000E+00  0.000000E+00  0.000000E+00  0.000000E+00  0.000000E+00                                                                                                                                                                                                                                                                                                                                                                                                                                                                                              
  1.725000E+03  1.250000E+02 -5.425000E+03 -1.020446E+08 -8.982271E+07 -1.221069E+08  2.530581E+03 -4.894581E+05  6.860630E+03  1.718713E-04  4.337431E-06 -6.467933E-04  5.889454E-07 -1.139122E-04  1.189176E-06 -4.705846E-04  0.000000E+00  0.000000E+00  0.000000E+00  0.000000E+00  0.000000E+00  0.000000E+00  0.000000E+00                                                                                                                                                                                                                                                                                                                                                                                                                                                                                              
  1.975000E+03  1.250000E+02 -5.425000E+03 -1.009200E+08 -9.057328E+07 -1.253422E+08  2.552840E+03 -1.767027E+05  2.023014E+03  3.410648E-04  5.013548E-06 -8.509588E-04  5.941258E-07 -4.112426E-05  3.506558E-07 -5.048805E-04  0.000000E+00  0.000000E+00  0.000000E+00  0.000000E+00  0.000000E+00  0.000000E+00  0.000000E+00                                                                                                                                                                                                                                                                                                                                                                                                                                                                                              
  1.250000E+02  1.250000E+02 -5.225000E+03 -9.762178E+07 -8.810328E+07 -1.221018E+08  9.256995E+03  6.103638E+05 -1.575241E+03  3.746870E-04  6.375156E-06 -8.519769E-04  2.154393E-06  1.420508E-04 -2.730418E-07 -4.709148E-04  0.000000E+00  0.000000E+00  0.000000E+00  0.000000E+00  0.000000E+00  0.000000E+00  0.000000E+00                                                                                                                                                                                                                                                                                                                                                                                                                                                                                              
  3.750000E+02  1.250000E+02 -5.225000E+03 -9.874326E+07 -8.727386E+07 -1.186298E+08  9.411388E+03  1.842543E+06 -6.885445E+03  1.988293E-04  5.823496E-06 -6.344096E-04  2.190325E-06  4.288174E-04 -1.193477E-06 -4.297568E-04  0.000000E+00  0.000000E+00  0.000000E+00  0.000000E+00  0.000000E+00  0.000000E+00  0.000000E+00                                                                                                                                                                                                                                                                                                                                                                                                                                                                                              
  6.250000E+02  1.250000E+02 -5.225000E+03 -1.008550E+08 -8.592300E+07 -1.127596E+08  5.180620E+03  2.156916E+06 -1.239797E+04 -1.142758E-04  4.362712E-06 -2.644088E-04  1.205693E-06  5.019819E-04 -2.148982E-06 -3.743219E-04  0.000000E+00  0.000000E+00  0.000000E+00  0.000000E+00  0.000000E+00  0.000000E+00  0.000000E+00                                                                                                                                                                                                                                                                                                                                                                                                                                                                                              
  8.750000E+02  1.250000E+02 -5.225000E+03 -1.023726E+08 -8.468697E+07 -1.079004E+08 -3.586802E+03  1.033596E+06 -8.696520E+03 -3.672892E-04  2.418770E-06  2.592564E-05 -8.347611E-07  2.405501E-04 -1.507397E-06 -3.389448E-04  0.000000E+00  0.000000E+00  0.000000E+00  0.000000E+00  0.000000E+00  0.000000E+00  0.000000E+00                                                                                                                                                                                                                                                                                                                                                                                                                                                                                              
  1.050000E+03  1.250000E+02 -5.225000E+03 -1.029977E+08 -8.431994E+07 -1.063925E+08 -8.281567E+03  3.189620E-02 -4.848918E-02 -4.597562E-04  1.484872E-06  1.141575E-04 -1.927380E-06  7.423246E-12 -8.404792E-12 -3.441138E-04  0.000000E+00  0.000000E+00  0.000000E+00  0.000000E+00  0.000000E+00  0.000000E+00  0.000000E+00                                                                                                                                                                                                                                                                                                                                                                                                                                                                                              
  1.225000E+03  1.250000E+02 -5.225000E+03 -1.023726E+08 -8.468697E+07 -1.079004E+08 -3.586841E+03 -1.033596E+06  8.696507E+03 -3.672892E-04  2.418766E-06  2.592565E-05 -8.347703E-07 -2.405501E-04  1.507395E-06 -3.389448E-04  0.000000E+00  0.000000E+00  0.000000E+00  0.000000E+00  0.000000E+00  0.000000E+00  0.000000E+00                                                                                                                                                                                                                                                                                                                                                                                                                                                                                              
  1.475000E+03  1.250000E+02 -5.225000E+03 -1.008550E+08 -8.592300E+07 -1.127596E+08  5.180591E+03 -2.156916E+06  1.239801E+04 -1.142758E-04  4.362710E-06 -2.644088E-04  1.205686E-06 -5.019819E-04  2.148988E-06 -3.743219E-04  0.000000E+00  0.000000E+00  0.000000E+00  0.000000E+00  0.000000E+00  0.000000E+00  0.000000E+00                                                                                                                                                                                                                                                                                                                                                                                                                                                                                              
  1.725000E+03  1.250000E+02 -5.225000E+03 -9.874326E+07 -8.727386E+07 -1.186298E+08  9.411361E+03 -1.842543E+06  6.885452E+03  1.988293E-04  5.823498E-06 -6.344096E-04  2.190319E-06 -4.288174E-04  1.193478E-06 -4.297568E-04  0.000000E+00  0.000000E+00  0.000000E+00  0.000000E+00  0.000000E+00  0.000000E+00  0.000000E+00                                                                                                                                                                                                                                                                                                                                                                                                                                                                                              
  1.975000E+03  1.250000E+02 -5.225000E+03 -9.762178E+07 -8.810328E+07 -1.221018E+08  9.256966E+03 -6.103637E+05  1.575235E+03  3.746870E-04  6.375157E-06 -8.519769E-04  2.154386E-06 -1.420508E-04  2.730407E-07 -4.709147E-04  0.000000E+00  0.000000E+00  0.000000E+00  0.000000E+00  0.000000E+00  0.000000E+00  0.000000E+00                                                                                                                                                                                                                                                                                                                                                                                                                                                                                              
  1.250000E+02  1.250000E+02 -4.975000E+03 -9.293386E+07 -8.482115E+07 -1.190154E+08  2.012580E+04  1.014343E+06  6.023998E+03  4.508539E-04  1.053059E-05 -9.519810E-04  4.683905E-06  2.360694E-04  1.044160E-06 -4.905965E-04  0.000000E+00  0.000000E+00  0.000000E+00  0.000000E+00  0.000000E+00  0.000000E+00  0.000000E+00                                                                                                                                                                                                                                                                                                                                                                                                                                                                                              
  3.750000E+02  1.250000E+02 -4.975000E+03 -9.405775E+07 -8.388993E+07 -1.153183E+08  3.392079E+04  3.712726E+06  2.328418E+03  2.681587E-04  1.215012E-05 -7.215049E-04  7.894431E-06  8.640677E-04  4.035925E-07 -4.411962E-04  0.000000E+00  0.000000E+00  0.000000E+00  0.000000E+00  0.000000E+00  0.000000E+00  0.000000E+00                                                                                                                                                                                                                                                                                                                                                                                                                                                                                              
  6.250000E+02  1.250000E+02 -4.975000E+03 -9.651084E+07 -8.188795E+07 -1.070307E+08  1.965662E+04  4.766260E+06 -2.714787E+04 -1.326780E-04  9.924889E-06 -2.008653E-04  4.574711E-06  1.109258E-03 -4.705630E-06 -3.236184E-04  0.000000E+00  0.000000E+00  0.000000E+00  0.000000E+00  0.000000E+00  0.000000E+00  0.000000E+00                                                                                                                                                                                                                                                                                                                                                                                                                                                                                              
  8.750000E+02  1.250000E+02 -4.975000E+03 -9.891765E+07 -8.047017E+07 -1.008340E+08 -1.201928E+04  1.883151E+06 -2.231056E+04 -4.831615E-04  5.899690E-06  1.830473E-04 -2.797262E-06  4.382683E-04 -3.867163E-06 -2.942145E-04  0.000000E+00  0.000000E+00  0.000000E+00  0.000000E+00  0.000000E+00  0.000000E+00  0.000000E+00                                                                                                                                                                                                                                                                                                                                                                                                                                                                                              
  1.050000E+03  1.250000E+02 -4.975000E+03 -9.835799E+07 -7.962974E+07 -9.903673E+07 -2.386362E+04 -9.406053E-03 -1.186622E-01 -5.158657E-04  4.715406E-06  2.522103E-04 -5.553811E-06 -2.189083E-12 -2.056812E-11 -2.589399E-04  0.000000E+00  0.000000E+00  0.000000E+00  0.000000E+00  0.000000E+00  0.000000E+00  0.000000E+00                                                                                                                                                                                                                                                                                                                                                                                                                                                                                              
  1.225000E+03  1.250000E+02 -4.975000E+03 -9.891765E+07 -8.047017E+07 -1.008340E+08 -1.201928E+04 -1.883151E+06  2.231053E+04 -4.831615E-04  5.899680E-06  1.830473E-04 -2.797264E-06 -4.382683E-04  3.867158E-06 -2.942146E-04  0.000000E+00  0.000000E+00  0.000000E+00  0.000000E+00  0.000000E+00  0.000000E+00  0.000000E+00                                                                                                                                                                                                                                                                                                                                                                                                                                                                                              
  1.475000E+03  1.250000E+02 -4.975000E+03 -9.651084E+07 -8.188795E+07 -1.070307E+08  1.965662E+04 -4.766260E+06  2.714793E+04 -1.326780E-04  9.924883E-06 -2.008653E-04  4.574711E-06 -1.109258E-03  4.705641E-06 -3.236184E-04  0.000000E+00  0.000000E+00  0.000000E+00  0.000000E+00  0.000000E+00  0.000000E+00  0.000000E+00                                                                                                                                                                                                                                                                                                                                                                                                                                                                                              
  1.725000E+03  1.250000E+02 -4.975000E+03 -9.405775E+07 -8.388993E+07 -1.153183E+08  3.392080E+04 -3.712726E+06 -2.328409E+03  2.681587E-04  1.215012E-05 -7.215049E-04  7.894434E-06 -8.640677E-04 -4.035910E-07 -4.411961E-04  0.000000E+00  0.000000E+00  0.000000E+00  0.000000E+00  0.000000E+00  0.000000E+00  0.000000E+00                                                                                                                                                                                                                                                                                                                                                                                                                                                                                              
  1.975000E+03  1.250000E+02 -4.975000E+03 -9.293386E+07 -8.482115E+07 -1.190154E+08  2.012582E+04 -1.014343E+06 -6.024005E+03  4.508539E-04  1.053059E-05 -9.519810E-04  4.683910E-06 -2.360694E-04 -1.044161E-06 -4.905965E-04  0.000000E+00  0.000000E+00  0.000000E+00  0.000000E+00  0.000000E+00  0.000000E+00  0.000000E+00                                                                                                                                                                                                                                                                                                                                                                                                                                                                                              
  1.250000E+02  1.250000E+02 -4.725000E+03 -8.961584E+07 -8.218202E+07 -1.167472E+08  5.988608E+02  4.596151E+04 -1.280428E+04  4.638660E-04  1.461846E-05 -1.067386E-03  1.393737E-07  1.069668E-05 -2.219408E-06 -5.889014E-04  0.000000E+00  0.000000E+00  0.000000E+00  0.000000E+00  0.000000E+00  0.000000E+00  0.000000E+00                                                                                                                                                                                                                                                                                                                                                                                                                                                                                              
  3.750000E+02  1.250000E+02 -4.725000E+03 -8.760236E+07 -8.049947E+07 -1.141084E+08 -2.575847E+04  5.475051E+06  1.906609E+03  4.883347E-04  1.643598E-05 -9.932429E-04 -5.994802E-06  1.274216E-03  3.304788E-07 -4.884722E-04  0.000000E+00  0.000000E+00  0.000000E+00  0.000000E+00  0.000000E+00  0.000000E+00  0.000000E+00                                                                                                                                                                                                                                                                                                                                                                                                                                                                                              
  6.250000E+02  1.250000E+02 -4.725000E+03 -9.276605E+07 -7.579054E+07 -1.005254E+08  1.106846E+04  7.709735E+06 -7.831497E+03 -3.756858E-04  2.080376E-05 -2.421243E-04  2.575978E-06  1.794297E-03 -1.357459E-06 -5.970063E-04  0.000000E+00  0.000000E+00  0.000000E+00  0.000000E+00  0.000000E+00  0.000000E+00  0.000000E+00                                                                                                                                                                                                                                                                                                                                                                                                                                                                                              
  8.750000E+02  1.250000E+02 -4.725000E+03 -8.837251E+07 -7.035950E+07 -9.123859E+07 -4.180236E+04  3.644571E+05 -6.409812E+04 -4.917391E-04  1.313546E-05  5.205690E-05 -9.728720E-06  8.482059E-05 -1.111034E-05 -4.265468E-04  0.000000E+00  0.000000E+00  0.000000E+00  0.000000E+00  0.000000E+00  0.000000E+00  0.000000E+00                                                                                                                                                                                                                                                                                                                                                                                                                                                                                              
  1.050000E+03  1.250000E+02 -4.725000E+03 -8.797004E+07 -7.096921E+07 -9.401964E+07 -1.345065E+05 -6.798050E-03 -8.066864E-02 -4.238789E-04  3.552129E-06 -1.636974E-04 -3.130389E-05 -1.582119E-12 -1.398256E-11 -5.840241E-04  0.000000E+00  0.000000E+00  0.000000E+00  0.000000E+00  0.000000E+00  0.000000E+00  0.000000E+00                                                                                                                                                                                                                                                                                                                                                                                                                                                                                              
  1.225000E+03  1.250000E+02 -4.725000E+03 -8.837251E+07 -7.035950E+07 -9.123859E+07 -4.180233E+04 -3.644572E+05  6.409806E+04 -4.917391E-04  1.313545E-05  5.205691E-05 -9.728713E-06 -8.482062E-05  1.111033E-05 -4.265468E-04  0.000000E+00  0.000000E+00  0.000000E+00  0.000000E+00  0.000000E+00  0.000000E+00  0.000000E+00                                                                                                                                                                                                                                                                                                                                                                                                                                                                                              
  1.475000E+03  1.250000E+02 -4.725000E+03 -9.276605E+07 -7.579053E+07 -1.005254E+08  1.106848E+04 -7.709735E+06  7.831568E+03 -3.756858E-04  2.080375E-05 -2.421243E-04  2.575982E-06 -1.794297E-03  1.357472E-06 -5.970064E-04  0.000000E+00  0.000000E+00  0.000000E+00  0.000000E+00  0.000000E+00  0.000000E+00  0.000000E+00                                                                                                                                                                                                                                                                                                                                                                                                                                                                                              
  1.725000E+03  1.250000E+02 -4.725000E+03 -8.760236E+07 -8.049947E+07 -1.141084E+08 -2.575844E+04 -5.475051E+06 -1.906580E+03  4.883347E-04  1.643598E-05 -9.932429E-04 -5.994797E-06 -1.274216E-03 -3.304739E-07 -4.884722E-04  0.000000E+00  0.000000E+00  0.000000E+00  0.000000E+00  0.000000E+00  0.000000E+00  0.000000E+00                                                                                                                                                                                                                                                                                                                                                                                                                                                                                              