Title="TREACTMECH V1.0-OMP-MPI stress-strain.tec: Total Stresses (Pa), Strains"                                                                                                                                                                                                                                                                                                                                                                                                                                                                                                                                                                                                                                                                                                                                                 
Variables= "X(m)"     "Y(m)"      "Z(m)"    "Sigma_xx"    "Sigma_yy"    "Sigma_zz"    "Sigma_yz"    "Sigma_xz"    "Sigma_xy"   "Strain_xx"   "Strain_yy"   "Strain_zz"   "Strain_yz"   "Strain_xz"   "Strain_xy"  "Vol_Strain"   "E_fail_xx"   "E_fail_yy"   "E_fail_zz"  "E_fail_yz2"  "E_fail_xz2"  "E_fail_xy2"  "E_fail_vol"                                                                                                                                                                                                                                                                                                                                                                                                                                                                                                
Zone T= "1.00000000E+07 sec" I=     9 J=    10 K=    23 F=Point
  1.250000E+02  1.250000E+02 -5.425000E+03 -1.071974E+08 -9.377674E+07 -1.199238E+08  2.193057E-02  1.012796E+04  1.825215E-02  6.963499E-05 -5.609603E-11 -1.087411E-04  5.103931E-12  2.357095E-06  3.163706E-12 -3.910616E-05  0.000000E+00  0.000000E+00  0.000000E+00  0.000000E+00  0.000000E+00  0.000000E+00  0.000000E+00                                                                                                                                                                                                                                                                                                                                                                                                                                                                                              
  3.750000E+02  1.250000E+02 -5.425000E+03 -1.072661E+08 -9.356005E+07 -1.194572E+08  3.600585E-02  3.213735E+04  6.832103E-02  3.889868E-05 -5.839986E-11 -9.758823E-05  8.379689E-12  7.479368E-06  1.184231E-11 -5.868961E-05  0.000000E+00  0.000000E+00  0.000000E+00  0.000000E+00  0.000000E+00  0.000000E+00  0.000000E+00                                                                                                                                                                                                                                                                                                                                                                                                                                                                                              
  6.250000E+02  1.250000E+02 -5.425000E+03 -1.074034E+08 -9.318095E+07 -1.186288E+08  4.518062E-02  4.782784E+04  6.333113E-02 -1.629360E-05 -6.828751E-11 -7.691642E-05  1.051495E-11  1.113104E-05  1.097740E-11 -9.321009E-05  0.000000E+00  0.000000E+00  0.000000E+00  0.000000E+00  0.000000E+00  0.000000E+00  0.000000E+00                                                                                                                                                                                                                                                                                                                                                                                                                                                                                              
  8.750000E+02  1.250000E+02 -5.425000E+03 -1.075500E+08 -9.279836E+07 -1.177967E+08  4.155341E-03  3.319691E+04  8.585656E-02 -7.264191E-05 -7.288873E-11 -5.630784E-05  9.670781E-13  7.725960E-06  1.488180E-11 -1.289498E-04  0.000000E+00  0.000000E+00  0.000000E+00  0.000000E+00  0.000000E+00  0.000000E+00  0.000000E+00                                                                                                                                                                                                                                                                                                                                                                                                                                                                                              
  1.050000E+03  1.250000E+02 -5.425000E+03 -1.076103E+08 -9.261791E+07 -1.174291E+08 -2.984346E-02 -9.202052E-02  2.148206E-02 -9.799024E-05 -6.841144E-11 -4.794947E-05 -6.945508E-12 -2.141606E-11  3.723557E-12 -1.459398E-04  0.000000E+00  0.000000E+00  0.000000E+00  0.000000E+00  0.000000E+00  0.000000E+00  0.000000E+00                                                                                                                                                                                                                                                                                                                                                                                                                                                                                              
  1.225000E+03  1.250000E+02 -5.425000E+03 -1.075500E+08 -9.279835E+07 -1.177967E+08 -2.822626E-02 -3.319685E+04  4.070357E-02 -7.264190E-05 -6.214446E-11 -5.630779E-05 -6.569135E-12 -7.725947E-06  7.055285E-12 -1.289498E-04  0.000000E+00  0.000000E+00  0.000000E+00  0.000000E+00  0.000000E+00  0.000000E+00  0.000000E+00                                                                                                                                                                                                                                                                                                                                                                                                                                                                                              
  1.475000E+03  1.250000E+02 -5.425000E+03 -1.074034E+08 -9.318095E+07 -1.186288E+08 -2.401418E-02 -4.782769E+04  8.296978E-03 -1.629365E-05 -5.437779E-11 -7.691632E-05 -5.588853E-12 -1.113100E-05  1.438143E-12 -9.321002E-05  0.000000E+00  0.000000E+00  0.000000E+00  0.000000E+00  0.000000E+00  0.000000E+00  0.000000E+00                                                                                                                                                                                                                                                                                                                                                                                                                                                                                              
  1.725000E+03  1.250000E+02 -5.425000E+03 -1.072661E+08 -9.356005E+07 -1.194572E+08 -2.604663E-02 -3.213726E+04 -1.573230E-02  3.889860E-05 -5.382397E-11 -9.758813E-05 -6.061868E-12 -7.479347E-06 -2.726932E-12 -5.868958E-05  0.000000E+00  0.000000E+00  0.000000E+00  0.000000E+00  0.000000E+00  0.000000E+00  0.000000E+00                                                                                                                                                                                                                                                                                                                                                                                                                                                                                              
  1.975000E+03  1.250000E+02 -5.425000E+03 -1.071975E+08 -9.377674E+07 -1.199238E+08 -3.338683E-02 -1.012796E+04  1.858551E-03  6.963488E-05 -5.557199E-11 -1.087410E-04 -7.770162E-12 -2.357093E-06  3.221489E-13 -3.910617E-05  0.000000E+00  0.000000E+00  0.000000E+00  0.000000E+00  0.000000E+00  0.000000E+00  0.000000E+00                                                                                                                                                                                                                                                                                                                                                                                                                                                                                              
  1.250000E+02  1.250000E+02 -5.225000E+03 -1.036298E+08 -9.069649E+07 -1.160149E+08  3.754457E-02  3.449506E+04 -1.618127E-02  7.235742E-05 -4.822631E-11 -1.060783E-04  8.737798E-12  8.028082E-06 -2.804754E-12 -3.372090E-05  0.000000E+00  0.000000E+00  0.000000E+00  0.000000E+00  0.000000E+00  0.000000E+00  0.000000E+00                                                                                                                                                                                                                                                                                                                                                                                                                                                                                              
  3.750000E+02  1.250000E+02 -5.225000E+03 -1.036857E+08 -9.047273E+07 -1.155531E+08  1.889664E-02  1.046999E+05  3.750411E-02  4.189951E-05 -5.360785E-11 -9.634794E-05  4.397839E-12  2.436694E-05  6.500712E-12 -5.444849E-05  0.000000E+00  0.000000E+00  0.000000E+00  0.000000E+00  0.000000E+00  0.000000E+00  0.000000E+00                                                                                                                                                                                                                                                                                                                                                                                                                                                                                              
  6.250000E+02  1.250000E+02 -5.225000E+03 -1.037918E+08 -9.005199E+07 -1.146919E+08  5.402170E-02  1.527391E+05  8.223157E-02 -1.531598E-05 -6.105047E-11 -7.838542E-05  1.257254E-11  3.554717E-05  1.425347E-11 -9.370147E-05  0.000000E+00  0.000000E+00  0.000000E+00  0.000000E+00  0.000000E+00  0.000000E+00  0.000000E+00                                                                                                                                                                                                                                                                                                                                                                                                                                                                                              
  8.750000E+02  1.250000E+02 -5.225000E+03 -1.039136E+08 -8.959779E+07 -1.137756E+08  8.403413E-02  1.048763E+05  8.698907E-02 -7.765565E-05 -6.493812E-11 -6.007757E-05  1.955738E-11  2.440800E-05  1.507810E-11 -1.377333E-04  0.000000E+00  0.000000E+00  0.000000E+00  0.000000E+00  0.000000E+00  0.000000E+00  0.000000E+00                                                                                                                                                                                                                                                                                                                                                                                                                                                                                              
  1.050000E+03  1.250000E+02 -5.225000E+03 -1.039577E+08 -8.937391E+07 -1.133519E+08  4.169886E-02  7.617014E-02  1.155868E-02 -1.064260E-04 -6.531524E-11 -5.246102E-05  9.704632E-12  1.772718E-11  2.003505E-12 -1.588871E-04  0.000000E+00  0.000000E+00  0.000000E+00  0.000000E+00  0.000000E+00  0.000000E+00  0.000000E+00                                                                                                                                                                                                                                                                                                                                                                                                                                                                                              
  1.225000E+03  1.250000E+02 -5.225000E+03 -1.039136E+08 -8.959779E+07 -1.137756E+08 -1.190355E-02 -1.048763E+05  5.686658E-02 -7.765563E-05 -6.234546E-11 -6.007753E-05 -2.770330E-12 -2.440799E-05  9.856875E-12 -1.377332E-04  0.000000E+00  0.000000E+00  0.000000E+00  0.000000E+00  0.000000E+00  0.000000E+00  0.000000E+00                                                                                                                                                                                                                                                                                                                                                                                                                                                                                              
  1.475000E+03  1.250000E+02 -5.225000E+03 -1.037918E+08 -9.005199E+07 -1.146919E+08 -4.241209E-02 -1.527393E+05  2.214442E-03 -1.531601E-05 -5.632475E-11 -7.838536E-05 -9.870621E-12 -3.554722E-05  3.838366E-13 -9.370144E-05  0.000000E+00  0.000000E+00  0.000000E+00  0.000000E+00  0.000000E+00  0.000000E+00  0.000000E+00                                                                                                                                                                                                                                                                                                                                                                                                                                                                                              
  1.725000E+03  1.250000E+02 -5.225000E+03 -1.036857E+08 -9.047273E+07 -1.155531E+08 -5.748112E-02 -1.046999E+05 -4.458956E-02  4.189943E-05 -5.792361E-11 -9.634787E-05 -1.337766E-11 -2.436696E-05 -7.728857E-12 -5.444849E-05  0.000000E+00  0.000000E+00  0.000000E+00  0.000000E+00  0.000000E+00  0.000000E+00  0.000000E+00                                                                                                                                                                                                                                                                                                                                                                                                                                                                                              
  1.975000E+03  1.250000E+02 -5.225000E+03 -1.036299E+08 -9.069649E+07 -1.160149E+08 -6.418942E-02 -3.449507E+04 -7.839698E-03  7.235731E-05 -6.161607E-11 -1.060782E-04 -1.493889E-11 -8.028084E-06 -1.358881E-12 -3.372092E-05  0.000000E+00  0.000000E+00  0.000000E+00  0.000000E+00  0.000000E+00  0.000000E+00  0.000000E+00                                                                                                                                                                                                                                                                                                                                                                                                                                                                                              
  1.250000E+02  1.250000E+02 -4.975000E+03 -9.861791E+07 -8.632451E+07 -1.111707E+08 -9.209747E-03  5.901729E+04 -6.382233E-02  7.799642E-05 -3.844787E-11 -1.523404E-04 -2.143397E-12  1.373517E-05 -1.106254E-11 -7.434406E-05  0.000000E+00  0.000000E+00  0.000000E+00  0.000000E+00  0.000000E+00  0.000000E+00  0.000000E+00                                                                                                                                                                                                                                                                                                                                                                                                                                                                                              
  3.750000E+02  1.250000E+02 -4.975000E+03 -9.865857E+07 -8.609489E+07 -1.107115E+08 -2.072532E-02  1.815283E+05 -2.843490E-03  4.836748E-05 -5.045041E-11 -1.433058E-04 -4.823432E-12  4.224732E-05 -4.928716E-13 -9.493836E-05  0.000000E+00  0.000000E+00  0.000000E+00  0.000000E+00  0.000000E+00  0.000000E+00  0.000000E+00                                                                                                                                                                                                                                                                                                                                                                                                                                                                                              
  6.250000E+02  1.250000E+02 -4.975000E+03 -9.875642E+07 -8.562958E+07 -1.097865E+08  1.331693E-02  2.733749E+05  1.122346E-01 -1.294520E-05 -5.357155E-11 -1.253521E-04  3.099266E-12  6.362291E-05  1.945399E-11 -1.382973E-04  0.000000E+00  0.000000E+00  0.000000E+00  0.000000E+00  0.000000E+00  0.000000E+00  0.000000E+00                                                                                                                                                                                                                                                                                                                                                                                                                                                                                              
  8.750000E+02  1.250000E+02 -4.975000E+03 -9.887774E+07 -8.505898E+07 -1.086651E+08  1.841434E-02  2.045087E+05  5.153090E-02 -8.790541E-05 -5.242072E-11 -1.038531E-04  4.285594E-12  4.759559E-05  8.932022E-12 -1.917585E-04  0.000000E+00  0.000000E+00  0.000000E+00  0.000000E+00  0.000000E+00  0.000000E+00  0.000000E+00                                                                                                                                                                                                                                                                                                                                                                                                                                                                                              
  1.050000E+03  1.250000E+02 -4.975000E+03 -9.897375E+07 -8.478029E+07 -1.081214E+08 -1.753950E-02  9.298219E-02 -5.063406E-02 -1.275661E-04 -5.740032E-11 -9.346493E-05 -4.081992E-12  2.163987E-11 -8.776570E-12 -2.210311E-04  0.000000E+00  0.000000E+00  0.000000E+00  0.000000E+00  0.000000E+00  0.000000E+00  0.000000E+00                                                                                                                                                                                                                                                                                                                                                                                                                                                                                              
  1.225000E+03  1.250000E+02 -4.975000E+03 -9.887774E+07 -8.505898E+07 -1.086651E+08 -2.872424E-02 -2.045086E+05  6.820012E-02 -8.790540E-05 -5.749169E-11 -1.038531E-04 -6.685030E-12 -4.759556E-05  1.182135E-11 -1.917586E-04  0.000000E+00  0.000000E+00  0.000000E+00  0.000000E+00  0.000000E+00  0.000000E+00  0.000000E+00                                                                                                                                                                                                                                                                                                                                                                                                                                                                                              
  1.475000E+03  1.250000E+02 -4.975000E+03 -9.875642E+07 -8.562958E+07 -1.097865E+08 -3.329138E-02 -2.733750E+05 -3.695716E-03 -1.294522E-05 -5.313060E-11 -1.253521E-04 -7.747947E-12 -6.362293E-05 -6.405908E-13 -1.382973E-04  0.000000E+00  0.000000E+00  0.000000E+00  0.000000E+00  0.000000E+00  0.000000E+00  0.000000E+00                                                                                                                                                                                                                                                                                                                                                                                                                                                                                              
  1.725000E+03  1.250000E+02 -4.975000E+03 -9.865857E+07 -8.609489E+07 -1.107115E+08 -4.413506E-02 -1.815283E+05 -6.794543E-02  4.836745E-05 -5.837352E-11 -1.433057E-04 -1.027161E-11 -4.224733E-05 -1.177721E-11 -9.493835E-05  0.000000E+00  0.000000E+00  0.000000E+00  0.000000E+00  0.000000E+00  0.000000E+00  0.000000E+00                                                                                                                                                                                                                                                                                                                                                                                                                                                                                              
  1.975000E+03  1.250000E+02 -4.975000E+03 -9.861791E+07 -8.632451E+07 -1.111707E+08 -4.497605E-02 -5.901724E+04 -1.236786E-02  7.799633E-05 -6.424681E-11 -1.523404E-04 -1.046734E-11 -1.373516E-05 -2.143762E-12 -7.434414E-05  0.000000E+00  0.000000E+00  0.000000E+00  0.000000E+00  0.000000E+00  0.000000E+00  0.000000E+00                                                                                                                                                                                                                                                                                                                                                                                                                                                                                              
  1.250000E+02  1.250000E+02 -4.725000E+03 -9.239681E+07 -8.073819E+07 -1.063588E+08 -2.001173E-02  6.834060E+04 -1.093746E-01  8.309788E-05 -3.115792E-11 -3.068104E-04 -4.657357E-12  1.590500E-05 -1.895826E-11 -2.237126E-04  0.000000E+00  0.000000E+00  0.000000E+00  0.000000E+00  0.000000E+00  0.000000E+00  0.000000E+00                                                                                                                                                                                                                                                                                                                                                                                                                                                                                              
  3.750000E+02  1.250000E+02 -4.725000E+03 -9.238826E+07 -8.049054E+07 -1.059189E+08 -2.573578E-03  2.161532E+05  7.421037E-03  5.634629E-05 -4.393594E-11 -3.006926E-04 -5.989523E-13  5.030562E-05  1.286313E-12 -2.443464E-04  0.000000E+00  0.000000E+00  0.000000E+00  0.000000E+00  0.000000E+00  0.000000E+00  0.000000E+00                                                                                                                                                                                                                                                                                                                                                                                                                                                                                              
  6.250000E+02  1.250000E+02 -4.725000E+03 -9.238193E+07 -7.994769E+07 -1.049274E+08  4.771491E-02  3.870228E+05  1.280798E-01 -2.912390E-06 -3.885878E-11 -2.841430E-04  1.110476E-11  9.007233E-05  2.220049E-11 -2.870554E-04  0.000000E+00  0.000000E+00  0.000000E+00  0.000000E+00  0.000000E+00  0.000000E+00  0.000000E+00                                                                                                                                                                                                                                                                                                                                                                                                                                                                                              
  8.750000E+02  1.250000E+02 -4.725000E+03 -9.261668E+07 -7.921859E+07 -1.034720E+08  3.621176E-02  3.520352E+05 -2.076785E-02 -1.049152E-04 -3.606091E-11 -2.535213E-04  8.427611E-12  8.192963E-05 -3.599761E-12 -3.584365E-04  0.000000E+00  0.000000E+00  0.000000E+00  0.000000E+00  0.000000E+00  0.000000E+00  0.000000E+00                                                                                                                                                                                                                                                                                                                                                                                                                                                                                              
  1.050000E+03  1.250000E+02 -4.725000E+03 -9.263779E+07 -7.874482E+07 -1.025759E+08 -5.905019E-03  1.179833E-01 -7.646968E-02 -1.580827E-04 -4.557404E-11 -2.349031E-04 -1.374283E-12  2.745842E-11 -1.325475E-11 -3.929858E-04  0.000000E+00  0.000000E+00  0.000000E+00  0.000000E+00  0.000000E+00  0.000000E+00  0.000000E+00                                                                                                                                                                                                                                                                                                                                                                                                                                                                                              
  1.225000E+03  1.250000E+02 -4.725000E+03 -9.261668E+07 -7.921859E+07 -1.034720E+08 -5.066781E-02 -3.520351E+05  4.511096E-02 -1.049152E-04 -4.901461E-11 -2.535212E-04 -1.179199E-11 -8.192959E-05  7.819232E-12 -3.584365E-04  0.000000E+00  0.000000E+00  0.000000E+00  0.000000E+00  0.000000E+00  0.000000E+00  0.000000E+00                                                                                                                                                                                                                                                                                                                                                                                                                                                                                              
  1.475000E+03  1.250000E+02 -4.725000E+03 -9.238193E+07 -7.994769E+07 -1.049274E+08 -7.945177E-02 -3.870228E+05 -3.025617E-03 -2.912421E-06 -4.887543E-11 -2.841430E-04 -1.849092E-11 -9.007234E-05 -5.244403E-13 -2.870555E-04  0.000000E+00  0.000000E+00  0.000000E+00  0.000000E+00  0.000000E+00  0.000000E+00  0.000000E+00                                                                                                                                                                                                                                                                                                                                                                                                                                                                                              
  1.725000E+03  1.250000E+02 -4.725000E+03 -9.238826E+07 -8.049054E+07 -1.059189E+08 -6.045551E-02 -2.161534E+05 -5.514065E-02  5.634630E-05 -5.516676E-11 -3.006926E-04 -1.406989E-11 -5.030566E-05 -9.557713E-12 -2.443464E-04  0.000000E+00  0.000000E+00  0.000000E+00  0.000000E+00  0.000000E+00  0.000000E+00  0.000000E+00                                                                                                                                                                                                                                                                                                                                                                                                                                                                                              