Title="TOUGHREACT V3.30-OMP: Aqueous Total & Species Concentrations in mol/kg h2o, Surface & Exchanged Species in mol/kg h2o, Dry blocks in mol/L medium"                                                                                                                                                                                                                                                                                                                                                                                                                                                                                                                                                                                                                                                                       
Variables= "X(m)"   "Y(m)"   "Z(m)"   "P(bar)"     "T(C)"   "SatGas"   "SatLiq"     "aH2O"       "pH"        "t_na+"        "t_cl-"      "t_hco3-"       "t_ca+2"      "t_so4-2"       "t_mg+2"       "t_ba+2"       "t_al+3"     "t_h4sio4"                                                                                                                                                                                                                                                                                                                                                                                                                                                                                                                                                                                    
Zone T= "3.16887907E+02 yr" I=      9J=     10K=     23F=Point 
     125.0000     125.0000   -5425.0000  5.72202E+02  155.706  0.00000E+00  1.00000E+00  1.00000  7.4962  9.9969E-11  9.9969E-11  2.0719E-04  1.0359E-04  9.9970E-11  1.0359E-04  9.9970E-11  2.4054E-05  2.7122E-03                                                                                                                                                                                                                                                                                                                                                                                                                                                                                                                                                                                                            
     375.0000     125.0000   -5425.0000  5.72081E+02  155.470  0.00000E+00  1.00000E+00  1.00000  7.4983  9.9969E-11  9.9969E-11  2.0732E-04  1.0365E-04  9.9970E-11  1.0366E-04  9.9970E-11  2.3933E-05  2.7036E-03                                                                                                                                                                                                                                                                                                                                                                                                                                                                                                                                                                                                            
     625.0000     125.0000   -5425.0000  5.71994E+02  152.954  0.00000E+00  1.00000E+00  1.00000  7.5208  9.9973E-11  9.9973E-11  2.0872E-04  1.0435E-04  9.9976E-11  1.0436E-04  9.9975E-11  2.2682E-05  2.6125E-03                                                                                                                                                                                                                                                                                                                                                                                                                                                                                                                                                                                                            
     875.0000     125.0000   -5425.0000  5.72883E+02  134.565  0.00000E+00  1.00000E+00  1.00000  7.7062  1.0002E-10  1.0002E-10  2.1842E-04  1.1001E-04  1.0005E-10  1.0841E-04  1.0003E-10  1.5155E-05  2.0141E-03                                                                                                                                                                                                                                                                                                                                                                                                                                                                                                                                                                                                            
    1050.0000     125.0000   -5425.0000  5.76232E+02   81.977  0.00000E+00  1.00000E+00  1.00000  8.4649  9.9832E-11  9.9832E-11  2.4641E-04  1.9152E-04  9.9840E-11  5.4896E-05  9.9835E-11  4.2719E-06  8.8350E-04                                                                                                                                                                                                                                                                                                                                                                                                                                                                                                                                                                                                            
    1225.0000     125.0000   -5425.0000  5.72883E+02  134.565  0.00000E+00  1.00000E+00  1.00000  7.7062  1.0002E-10  1.0002E-10  2.1842E-04  1.1001E-04  1.0005E-10  1.0841E-04  1.0003E-10  1.5155E-05  2.0141E-03                                                                                                                                                                                                                                                                                                                                                                                                                                                                                                                                                                                                            
    1475.0000     125.0000   -5425.0000  5.71994E+02  152.954  0.00000E+00  1.00000E+00  1.00000  7.5208  9.9973E-11  9.9973E-11  2.0872E-04  1.0435E-04  9.9976E-11  1.0436E-04  9.9975E-11  2.2682E-05  2.6125E-03                                                                                                                                                                                                                                                                                                                                                                                                                                                                                                                                                                                                            
    1725.0000     125.0000   -5425.0000  5.72081E+02  155.470  0.00000E+00  1.00000E+00  1.00000  7.4983  9.9969E-11  9.9969E-11  2.0732E-04  1.0365E-04  9.9970E-11  1.0366E-04  9.9970E-11  2.3933E-05  2.7036E-03                                                                                                                                                                                                                                                                                                                                                                                                                                                                                                                                                                                                            
    1975.0000     125.0000   -5425.0000  5.72202E+02  155.706  0.00000E+00  1.00000E+00  1.00000  7.4962  9.9969E-11  9.9969E-11  2.0719E-04  1.0359E-04  9.9970E-11  1.0359E-04  9.9970E-11  2.4054E-05  2.7122E-03                                                                                                                                                                                                                                                                                                                                                                                                                                                                                                                                                                                                            
     125.0000     125.0000   -5225.0000  5.53752E+02  152.652  0.00000E+00  1.00000E+00  1.00000  7.5233  9.9995E-11  9.9995E-11  2.0896E-04  1.0448E-04  9.9983E-11  1.0446E-04  9.9978E-11  2.2522E-05  2.6016E-03                                                                                                                                                                                                                                                                                                                                                                                                                                                                                                                                                                                                            
     375.0000     125.0000   -5225.0000  5.53611E+02  152.423  0.00000E+00  1.00000E+00  1.00000  7.5254  9.9994E-11  9.9994E-11  2.0908E-04  1.0454E-04  9.9983E-11  1.0452E-04  9.9979E-11  2.2413E-05  2.5935E-03                                                                                                                                                                                                                                                                                                                                                                                                                                                                                                                                                                                                            
     625.0000     125.0000   -5225.0000  5.53438E+02  150.028  0.00000E+00  1.00000E+00  1.00000  7.5477  9.9989E-11  9.9989E-11  2.1036E-04  1.0518E-04  9.9989E-11  1.0518E-04  9.9987E-11  2.1297E-05  2.5094E-03                                                                                                                                                                                                                                                                                                                                                                                                                                                                                                                                                                                                            
     875.0000     125.0000   -5225.0000  5.53987E+02  132.538  0.00000E+00  1.00000E+00  1.00000  7.7288  1.0003E-10  1.0003E-10  2.1940E-04  1.1031E-04  1.0005E-10  1.0909E-04  1.0004E-10  1.4473E-05  1.9551E-03                                                                                                                                                                                                                                                                                                                                                                                                                                                                                                                                                                                                            
    1050.0000     125.0000   -5225.0000  5.56746E+02   81.428  0.00000E+00  1.00000E+00  1.00000  8.4742  9.9880E-11  9.9880E-11  2.4640E-04  1.9154E-04  9.9888E-11  5.4855E-05  9.9883E-11  4.2050E-06  8.7535E-04                                                                                                                                                                                                                                                                                                                                                                                                                                                                                                                                                                                                            
    1225.0000     125.0000   -5225.0000  5.53987E+02  132.538  0.00000E+00  1.00000E+00  1.00000  7.7288  1.0003E-10  1.0003E-10  2.1940E-04  1.1031E-04  1.0005E-10  1.0909E-04  1.0004E-10  1.4473E-05  1.9551E-03                                                                                                                                                                                                                                                                                                                                                                                                                                                                                                                                                                                                            
    1475.0000     125.0000   -5225.0000  5.53438E+02  150.028  0.00000E+00  1.00000E+00  1.00000  7.5477  9.9989E-11  9.9989E-11  2.1036E-04  1.0518E-04  9.9989E-11  1.0518E-04  9.9987E-11  2.1297E-05  2.5094E-03                                                                                                                                                                                                                                                                                                                                                                                                                                                                                                                                                                                                            
    1725.0000     125.0000   -5225.0000  5.53611E+02  152.423  0.00000E+00  1.00000E+00  1.00000  7.5254  9.9994E-11  9.9994E-11  2.0908E-04  1.0454E-04  9.9983E-11  1.0452E-04  9.9979E-11  2.2413E-05  2.5935E-03                                                                                                                                                                                                                                                                                                                                                                                                                                                                                                                                                                                                            
    1975.0000     125.0000   -5225.0000  5.53752E+02  152.652  0.00000E+00  1.00000E+00  1.00000  7.5233  9.9995E-11  9.9995E-11  2.0896E-04  1.0448E-04  9.9983E-11  1.0446E-04  9.9978E-11  2.2522E-05  2.6016E-03                                                                                                                                                                                                                                                                                                                                                                                                                                                                                                                                                                                                            
     125.0000     125.0000   -4975.0000  5.30479E+02  146.499  0.00000E+00  1.00000E+00  1.00000  7.5814  1.0000E-10  1.0000E-10  2.1235E-04  1.0618E-04  9.9994E-11  1.0616E-04  9.9990E-11  1.9720E-05  2.3890E-03                                                                                                                                                                                                                                                                                                                                                                                                                                                                                                                                                                                                            
     375.0000     125.0000   -4975.0000  5.30324E+02  146.209  0.00000E+00  1.00000E+00  1.00000  7.5842  1.0000E-10  1.0000E-10  2.1250E-04  1.0625E-04  9.9995E-11  1.0623E-04  9.9991E-11  1.9597E-05  2.3794E-03                                                                                                                                                                                                                                                                                                                                                                                                                                                                                                                                                                                                            
     625.0000     125.0000   -4975.0000  5.30075E+02  143.915  0.00000E+00  1.00000E+00  1.00000  7.6072  1.0001E-10  1.0001E-10  2.1369E-04  1.0685E-04  1.0001E-10  1.0684E-04  1.0000E-10  1.8646E-05  2.3038E-03                                                                                                                                                                                                                                                                                                                                                                                                                                                                                                                                                                                                            
     875.0000     125.0000   -4975.0000  5.30297E+02  128.079  0.00000E+00  1.00000E+00  1.00000  7.7802  1.0004E-10  1.0004E-10  2.2142E-04  1.1118E-04  1.0007E-10  1.1024E-04  1.0005E-10  1.3067E-05  1.8300E-03                                                                                                                                                                                                                                                                                                                                                                                                                                                                                                                                                                                                            
    1050.0000     125.0000   -4975.0000  5.32414E+02   81.192  0.00000E+00  1.00000E+00  1.00000  8.4782  9.9932E-11  9.9932E-11  2.4640E-04  1.9158E-04  9.9940E-11  5.4821E-05  9.9934E-11  4.1767E-06  8.7187E-04                                                                                                                                                                                                                                                                                                                                                                                                                                                                                                                                                                                                            
    1225.0000     125.0000   -4975.0000  5.30297E+02  128.079  0.00000E+00  1.00000E+00  1.00000  7.7802  1.0004E-10  1.0004E-10  2.2142E-04  1.1118E-04  1.0007E-10  1.1024E-04  1.0005E-10  1.3067E-05  1.8300E-03                                                                                                                                                                                                                                                                                                                                                                                                                                                                                                                                                                                                            
    1475.0000     125.0000   -4975.0000  5.30075E+02  143.915  0.00000E+00  1.00000E+00  1.00000  7.6072  1.0001E-10  1.0001E-10  2.1369E-04  1.0685E-04  1.0001E-10  1.0684E-04  1.0000E-10  1.8646E-05  2.3038E-03                                                                                                                                                                                                                                                                                                                                                                                                                                                                                                                                                                                                            
    1725.0000     125.0000   -4975.0000  5.30324E+02  146.209  0.00000E+00  1.00000E+00  1.00000  7.5842  1.0000E-10  1.0000E-10  2.1250E-04  1.0625E-04  9.9995E-11  1.0623E-04  9.9991E-11  1.9597E-05  2.3794E-03                                                                                                                                                                                                                                                                                                                                                                                                                                                                                                                                                                                                            
    1975.0000     125.0000   -4975.0000  5.30479E+02  146.499  0.00000E+00  1.00000E+00  1.00000  7.5814  1.0000E-10  1.0000E-10  2.1235E-04  1.0618E-04  9.9994E-11  1.0616E-04  9.9990E-11  1.9720E-05  2.3890E-03                                                                                                                                                                                                                                                                                                                                                                                                                                                                                                                                                                                                            
     125.0000     125.0000   -4725.0000  5.07023E+02  137.511  0.00000E+00  1.00000E+00  1.00000  7.6738  1.0002E-10  1.0002E-10  2.1703E-04  1.0854E-04  1.0002E-10  1.0848E-04  1.0002E-10  1.6182E-05  2.1021E-03                                                                                                                                                                                                                                                                                                                                                                                                                                                                                                                                                                                                            
     375.0000     125.0000   -4725.0000  5.06921E+02  136.541  0.00000E+00  1.00000E+00  1.00000  7.6843  1.0002E-10  1.0002E-10  2.1751E-04  1.0881E-04  1.0003E-10  1.0869E-04  1.0002E-10  1.5835E-05  2.0728E-03                                                                                                                                                                                                                                                                                                                                                                                                                                                                                                                                                                                                            
     625.0000     125.0000   -4725.0000  5.06737E+02  133.382  0.00000E+00  1.00000E+00  1.00000  7.7192  1.0003E-10  1.0003E-10  2.1902E-04  1.0965E-04  1.0004E-10  1.0937E-04  1.0003E-10  1.4750E-05  1.9794E-03                                                                                                                                                                                                                                                                                                                                                                                                                                                                                                                                                                                                            
     875.0000     125.0000   -4725.0000  5.06804E+02  119.252  0.00000E+00  1.00000E+00  1.00000  7.8881  1.0006E-10  1.0006E-10  2.2491E-04  1.1312E-04  1.0010E-10  1.1180E-04  1.0007E-10  1.0619E-05  1.6009E-03                                                                                                                                                                                                                                                                                                                                                                                                                                                                                                                                                                                                            
    1050.0000     125.0000   -4725.0000  5.08113E+02   81.196  0.00000E+00  1.00000E+00  1.00000  8.4781  9.9965E-11  9.9965E-11  2.4640E-04  1.9158E-04  9.9972E-11  5.4819E-05  9.9967E-11  4.1772E-06  8.7193E-04                                                                                                                                                                                                                                                                                                                                                                                                                                                                                                                                                                                                            
    1225.0000     125.0000   -4725.0000  5.06804E+02  119.252  0.00000E+00  1.00000E+00  1.00000  7.8881  1.0006E-10  1.0006E-10  2.2491E-04  1.1312E-04  1.0010E-10  1.1180E-04  1.0007E-10  1.0619E-05  1.6009E-03                                                                                                                                                                                                                                                                                                                                                                                                                                                                                                                                                                                                            
    1475.0000     125.0000   -4725.0000  5.06737E+02  133.382  0.00000E+00  1.00000E+00  1.00000  7.7192  1.0003E-10  1.0003E-10  2.1902E-04  1.0965E-04  1.0004E-10  1.0937E-04  1.0003E-10  1.4750E-05  1.9794E-03                                                                                                                                                                                                                                                                                                                                                                                                                                                                                                                                                                                                            
    1725.0000     125.0000   -4725.0000  5.06921E+02  136.541  0.00000E+00  1.00000E+00  1.00000  7.6843  1.0002E-10  1.0002E-10  2.1751E-04  1.0881E-04  1.0003E-10  1.0869E-04  1.0002E-10  1.5835E-05  2.0728E-03                                                                                                                                                                                                                                                                                                                                                                                                                                                                                                                                                                                                            