Title="TOUGHREACT V3.30-OMP: Aqueous Total & Species Concentrations in mol/kg h2o, Surface & Exchanged Species in mol/kg h2o, Dry blocks in mol/L medium"                                                                                                                                                                                                                                                                                                                                                                                                                                                                                                                                                                                                                                                                       
Variables= "X(m)"   "Y(m)"   "Z(m)"   "P(bar)"     "T(C)"   "SatGas"   "SatLiq"     "aH2O"       "pH"        "t_na+"        "t_cl-"      "t_hco3-"       "t_ca+2"      "t_so4-2"       "t_mg+2"       "t_ba+2"       "t_al+3"     "t_h4sio4"                                                                                                                                                                                                                                                                                                                                                                                                                                                                                                                                                                                    
Zone T= "1.58443954E-09 yr" I=      9J=     10K=     23F=Point 
     125.0000     125.0000   -5425.0000  5.92466E+02  158.125  0.00000E+00  1.00000E+00  1.00000  7.4752  1.0001E-10  1.0001E-10  2.0586E-04  1.0293E-04  1.0001E-10  1.0293E-04  1.0001E-10  2.5316E-05  2.8021E-03                                                                                                                                                                                                                                                                                                                                                                                                                                                                                                                                                                                                            
     375.0000     125.0000   -5425.0000  5.92466E+02  158.125  0.00000E+00  1.00000E+00  1.00000  7.4752  1.0001E-10  1.0001E-10  2.0586E-04  1.0293E-04  1.0001E-10  1.0293E-04  1.0001E-10  2.5316E-05  2.8021E-03                                                                                                                                                                                                                                                                                                                                                                                                                                                                                                                                                                                                            
     625.0000     125.0000   -5425.0000  5.92466E+02  158.125  0.00000E+00  1.00000E+00  1.00000  7.4752  1.0001E-10  1.0001E-10  2.0586E-04  1.0293E-04  1.0001E-10  1.0293E-04  1.0001E-10  2.5316E-05  2.8021E-03                                                                                                                                                                                                                                                                                                                                                                                                                                                                                                                                                                                                            
     875.0000     125.0000   -5425.0000  5.92466E+02  158.125  0.00000E+00  1.00000E+00  1.00000  7.4752  1.0001E-10  1.0001E-10  2.0586E-04  1.0293E-04  1.0001E-10  1.0293E-04  1.0001E-10  2.5316E-05  2.8021E-03                                                                                                                                                                                                                                                                                                                                                                                                                                                                                                                                                                                                            
    1050.0000     125.0000   -5425.0000  5.92465E+02  158.125  0.00000E+00  1.00000E+00  1.00000  7.4752  1.0001E-10  1.0001E-10  2.0586E-04  1.0293E-04  1.0001E-10  1.0293E-04  1.0001E-10  2.5316E-05  2.8021E-03                                                                                                                                                                                                                                                                                                                                                                                                                                                                                                                                                                                                            
    1225.0000     125.0000   -5425.0000  5.92466E+02  158.125  0.00000E+00  1.00000E+00  1.00000  7.4752  1.0001E-10  1.0001E-10  2.0586E-04  1.0293E-04  1.0001E-10  1.0293E-04  1.0001E-10  2.5316E-05  2.8021E-03                                                                                                                                                                                                                                                                                                                                                                                                                                                                                                                                                                                                            
    1475.0000     125.0000   -5425.0000  5.92466E+02  158.125  0.00000E+00  1.00000E+00  1.00000  7.4752  1.0001E-10  1.0001E-10  2.0586E-04  1.0293E-04  1.0001E-10  1.0293E-04  1.0001E-10  2.5316E-05  2.8021E-03                                                                                                                                                                                                                                                                                                                                                                                                                                                                                                                                                                                                            
    1725.0000     125.0000   -5425.0000  5.92466E+02  158.125  0.00000E+00  1.00000E+00  1.00000  7.4752  1.0001E-10  1.0001E-10  2.0586E-04  1.0293E-04  1.0001E-10  1.0293E-04  1.0001E-10  2.5316E-05  2.8021E-03                                                                                                                                                                                                                                                                                                                                                                                                                                                                                                                                                                                                            
    1975.0000     125.0000   -5425.0000  5.92466E+02  158.125  0.00000E+00  1.00000E+00  1.00000  7.4752  1.0001E-10  1.0001E-10  2.0586E-04  1.0293E-04  1.0001E-10  1.0293E-04  1.0001E-10  2.5316E-05  2.8021E-03                                                                                                                                                                                                                                                                                                                                                                                                                                                                                                                                                                                                            
     125.0000     125.0000   -5225.0000  5.72376E+02  153.125  0.00000E+00  1.00000E+00  1.00000  7.5192  1.0001E-10  1.0001E-10  2.0863E-04  1.0432E-04  1.0001E-10  1.0432E-04  1.0001E-10  2.2762E-05  2.6186E-03                                                                                                                                                                                                                                                                                                                                                                                                                                                                                                                                                                                                            
     375.0000     125.0000   -5225.0000  5.72376E+02  153.125  0.00000E+00  1.00000E+00  1.00000  7.5192  1.0001E-10  1.0001E-10  2.0863E-04  1.0432E-04  1.0001E-10  1.0432E-04  1.0001E-10  2.2762E-05  2.6186E-03                                                                                                                                                                                                                                                                                                                                                                                                                                                                                                                                                                                                            
     625.0000     125.0000   -5225.0000  5.72376E+02  153.125  0.00000E+00  1.00000E+00  1.00000  7.5192  1.0001E-10  1.0001E-10  2.0863E-04  1.0432E-04  1.0001E-10  1.0432E-04  1.0001E-10  2.2762E-05  2.6186E-03                                                                                                                                                                                                                                                                                                                                                                                                                                                                                                                                                                                                            
     875.0000     125.0000   -5225.0000  5.72376E+02  153.125  0.00000E+00  1.00000E+00  1.00000  7.5192  1.0001E-10  1.0001E-10  2.0863E-04  1.0432E-04  1.0001E-10  1.0432E-04  1.0001E-10  2.2762E-05  2.6186E-03                                                                                                                                                                                                                                                                                                                                                                                                                                                                                                                                                                                                            
    1050.0000     125.0000   -5225.0000  5.72376E+02  153.125  0.00000E+00  1.00000E+00  1.00000  7.5192  1.0001E-10  1.0001E-10  2.0863E-04  1.0432E-04  1.0001E-10  1.0432E-04  1.0001E-10  2.2762E-05  2.6186E-03                                                                                                                                                                                                                                                                                                                                                                                                                                                                                                                                                                                                            
    1225.0000     125.0000   -5225.0000  5.72376E+02  153.125  0.00000E+00  1.00000E+00  1.00000  7.5192  1.0001E-10  1.0001E-10  2.0863E-04  1.0432E-04  1.0001E-10  1.0432E-04  1.0001E-10  2.2762E-05  2.6186E-03                                                                                                                                                                                                                                                                                                                                                                                                                                                                                                                                                                                                            
    1475.0000     125.0000   -5225.0000  5.72376E+02  153.125  0.00000E+00  1.00000E+00  1.00000  7.5192  1.0001E-10  1.0001E-10  2.0863E-04  1.0432E-04  1.0001E-10  1.0432E-04  1.0001E-10  2.2762E-05  2.6186E-03                                                                                                                                                                                                                                                                                                                                                                                                                                                                                                                                                                                                            
    1725.0000     125.0000   -5225.0000  5.72376E+02  153.125  0.00000E+00  1.00000E+00  1.00000  7.5192  1.0001E-10  1.0001E-10  2.0863E-04  1.0432E-04  1.0001E-10  1.0432E-04  1.0001E-10  2.2762E-05  2.6186E-03                                                                                                                                                                                                                                                                                                                                                                                                                                                                                                                                                                                                            
    1975.0000     125.0000   -5225.0000  5.72376E+02  153.125  0.00000E+00  1.00000E+00  1.00000  7.5192  1.0001E-10  1.0001E-10  2.0863E-04  1.0432E-04  1.0001E-10  1.0432E-04  1.0001E-10  2.2762E-05  2.6186E-03                                                                                                                                                                                                                                                                                                                                                                                                                                                                                                                                                                                                            
     125.0000     125.0000   -4975.0000  5.47264E+02  146.875  0.00000E+00  1.00000E+00  1.00000  7.5780  1.0001E-10  1.0001E-10  2.1207E-04  1.0604E-04  1.0001E-10  1.0604E-04  1.0001E-10  1.9893E-05  2.4017E-03                                                                                                                                                                                                                                                                                                                                                                                                                                                                                                                                                                                                            
     375.0000     125.0000   -4975.0000  5.47264E+02  146.875  0.00000E+00  1.00000E+00  1.00000  7.5780  1.0001E-10  1.0001E-10  2.1207E-04  1.0604E-04  1.0001E-10  1.0604E-04  1.0001E-10  1.9893E-05  2.4017E-03                                                                                                                                                                                                                                                                                                                                                                                                                                                                                                                                                                                                            
     625.0000     125.0000   -4975.0000  5.47264E+02  146.875  0.00000E+00  1.00000E+00  1.00000  7.5780  1.0001E-10  1.0001E-10  2.1207E-04  1.0604E-04  1.0001E-10  1.0604E-04  1.0001E-10  1.9893E-05  2.4017E-03                                                                                                                                                                                                                                                                                                                                                                                                                                                                                                                                                                                                            
     875.0000     125.0000   -4975.0000  5.47264E+02  146.875  0.00000E+00  1.00000E+00  1.00000  7.5780  1.0001E-10  1.0001E-10  2.1207E-04  1.0604E-04  1.0001E-10  1.0604E-04  1.0001E-10  1.9893E-05  2.4017E-03                                                                                                                                                                                                                                                                                                                                                                                                                                                                                                                                                                                                            
    1050.0000     125.0000   -4975.0000  5.47264E+02  146.875  0.00000E+00  1.00000E+00  1.00000  7.5780  1.0001E-10  1.0001E-10  2.1207E-04  1.0604E-04  1.0001E-10  1.0604E-04  1.0001E-10  1.9893E-05  2.4017E-03                                                                                                                                                                                                                                                                                                                                                                                                                                                                                                                                                                                                            
    1225.0000     125.0000   -4975.0000  5.47264E+02  146.875  0.00000E+00  1.00000E+00  1.00000  7.5780  1.0001E-10  1.0001E-10  2.1207E-04  1.0604E-04  1.0001E-10  1.0604E-04  1.0001E-10  1.9893E-05  2.4017E-03                                                                                                                                                                                                                                                                                                                                                                                                                                                                                                                                                                                                            
    1475.0000     125.0000   -4975.0000  5.47264E+02  146.875  0.00000E+00  1.00000E+00  1.00000  7.5780  1.0001E-10  1.0001E-10  2.1207E-04  1.0604E-04  1.0001E-10  1.0604E-04  1.0001E-10  1.9893E-05  2.4017E-03                                                                                                                                                                                                                                                                                                                                                                                                                                                                                                                                                                                                            
    1725.0000     125.0000   -4975.0000  5.47264E+02  146.875  0.00000E+00  1.00000E+00  1.00000  7.5780  1.0001E-10  1.0001E-10  2.1207E-04  1.0604E-04  1.0001E-10  1.0604E-04  1.0001E-10  1.9893E-05  2.4017E-03                                                                                                                                                                                                                                                                                                                                                                                                                                                                                                                                                                                                            
    1975.0000     125.0000   -4975.0000  5.47264E+02  146.875  0.00000E+00  1.00000E+00  1.00000  7.5780  1.0001E-10  1.0001E-10  2.1207E-04  1.0604E-04  1.0001E-10  1.0604E-04  1.0001E-10  1.9893E-05  2.4017E-03                                                                                                                                                                                                                                                                                                                                                                                                                                                                                                                                                                                                            
     125.0000     125.0000   -4725.0000  5.22151E+02  140.625  0.00000E+00  1.00000E+00  1.00000  7.6410  1.0001E-10  1.0001E-10  2.1539E-04  1.0770E-04  1.0001E-10  1.0770E-04  1.0001E-10  1.7348E-05  2.1985E-03                                                                                                                                                                                                                                                                                                                                                                                                                                                                                                                                                                                                            
     375.0000     125.0000   -4725.0000  5.22151E+02  140.625  0.00000E+00  1.00000E+00  1.00000  7.6410  1.0001E-10  1.0001E-10  2.1539E-04  1.0770E-04  1.0001E-10  1.0770E-04  1.0001E-10  1.7348E-05  2.1985E-03                                                                                                                                                                                                                                                                                                                                                                                                                                                                                                                                                                                                            
     625.0000     125.0000   -4725.0000  5.22151E+02  140.625  0.00000E+00  1.00000E+00  1.00000  7.6410  1.0001E-10  1.0001E-10  2.1539E-04  1.0770E-04  1.0001E-10  1.0770E-04  1.0001E-10  1.7348E-05  2.1985E-03                                                                                                                                                                                                                                                                                                                                                                                                                                                                                                                                                                                                            
     875.0000     125.0000   -4725.0000  5.22151E+02  140.625  0.00000E+00  1.00000E+00  1.00000  7.6410  1.0001E-10  1.0001E-10  2.1539E-04  1.0770E-04  1.0001E-10  1.0770E-04  1.0001E-10  1.7348E-05  2.1985E-03                                                                                                                                                                                                                                                                                                                                                                                                                                                                                                                                                                                                            
    1050.0000     125.0000   -4725.0000  5.22151E+02  140.625  0.00000E+00  1.00000E+00  1.00000  7.6410  1.0001E-10  1.0001E-10  2.1539E-04  1.0770E-04  1.0001E-10  1.0770E-04  1.0001E-10  1.7348E-05  2.1985E-03                                                                                                                                                                                                                                                                                                                                                                                                                                                                                                                                                                                                            
    1225.0000     125.0000   -4725.0000  5.22151E+02  140.625  0.00000E+00  1.00000E+00  1.00000  7.6410  1.0001E-10  1.0001E-10  2.1539E-04  1.0770E-04  1.0001E-10  1.0770E-04  1.0001E-10  1.7348E-05  2.1985E-03                                                                                                                                                                                                                                                                                                                                                                                                                                                                                                                                                                                                            
    1475.0000     125.0000   -4725.0000  5.22151E+02  140.625  0.00000E+00  1.00000E+00  1.00000  7.6410  1.0001E-10  1.0001E-10  2.1539E-04  1.0770E-04  1.0001E-10  1.0770E-04  1.0001E-10  1.7348E-05  2.1985E-03                                                                                                                                                                                                                                                                                                                                                                                                                                                                                                                                                                                                            
    1725.0000     125.0000   -4725.0000  5.22151E+02  140.625  0.00000E+00  1.00000E+00  1.00000  7.6410  1.0001E-10  1.0001E-10  2.1539E-04  1.0770E-04  1.0001E-10  1.0770E-04  1.0001E-10  1.7348E-05  2.1985E-03                                                                                                                                                                                                                                                                                                                                                                                                                                                                                                                                                                                                            