Title="TOUGHREACT V3.30-OMP: Aqueous Total & Species Concentrations in mol/kg h2o, Surface & Exchanged Species in mol/kg h2o, Dry blocks in mol/L medium"                                                                                                                                                                                                                                                                                                                                                                                                                                                                                                                                                                                                                                                                       
Variables= "X(m)"   "Y(m)"   "Z(m)"   "P(bar)"     "T(C)"   "SatGas"   "SatLiq"     "aH2O"       "pH"        "t_na+"        "t_cl-"      "t_hco3-"       "t_ca+2"      "t_so4-2"       "t_mg+2"       "t_ba+2"       "t_al+3"     "t_h4sio4"                                                                                                                                                                                                                                                                                                                                                                                                                                                                                                                                                                                    
Zone T= "1.00000000E+01 yr" I=      9J=     10K=     23F=Point 
     125.0000     125.0000   -5425.0000  5.91140E+02  158.028  0.00000E+00  1.00000E+00  1.00000  7.4761  1.0000E-10  1.0000E-10  2.0591E-04  1.0296E-04  1.0000E-10  1.0296E-04  1.0000E-10  2.5265E-05  2.7985E-03                                                                                                                                                                                                                                                                                                                                                                                                                                                                                                                                                                                                            
     375.0000     125.0000   -5425.0000  5.90984E+02  158.027  0.00000E+00  1.00000E+00  1.00000  7.4761  1.0000E-10  1.0000E-10  2.0591E-04  1.0296E-04  1.0000E-10  1.0296E-04  1.0000E-10  2.5264E-05  2.7985E-03                                                                                                                                                                                                                                                                                                                                                                                                                                                                                                                                                                                                            
     625.0000     125.0000   -5425.0000  5.89834E+02  158.021  0.00000E+00  1.00000E+00  1.00000  7.4761  1.0000E-10  1.0000E-10  2.0591E-04  1.0296E-04  1.0000E-10  1.0296E-04  1.0000E-10  2.5261E-05  2.7982E-03                                                                                                                                                                                                                                                                                                                                                                                                                                                                                                                                                                                                            
     875.0000     125.0000   -5425.0000  5.84250E+02  157.393  0.00000E+00  1.00000E+00  1.00000  7.4815  1.0000E-10  1.0000E-10  2.0626E-04  1.0313E-04  1.0001E-10  1.0313E-04  1.0001E-10  2.4927E-05  2.7747E-03                                                                                                                                                                                                                                                                                                                                                                                                                                                                                                                                                                                                            
    1050.0000     125.0000   -5425.0000  5.80647E+02   67.628  0.00000E+00  1.00000E+00  1.00000  8.7049  9.9677E-11  9.9677E-11  2.3519E-04  1.6412E-04  9.9679E-11  7.1073E-05  9.9678E-11  2.6858E-06  6.8539E-04                                                                                                                                                                                                                                                                                                                                                                                                                                                                                                                                                                                                            
    1225.0000     125.0000   -5425.0000  5.84250E+02  157.393  0.00000E+00  1.00000E+00  1.00000  7.4815  1.0000E-10  1.0000E-10  2.0626E-04  1.0313E-04  1.0001E-10  1.0313E-04  1.0001E-10  2.4927E-05  2.7747E-03                                                                                                                                                                                                                                                                                                                                                                                                                                                                                                                                                                                                            
    1475.0000     125.0000   -5425.0000  5.89834E+02  158.021  0.00000E+00  1.00000E+00  1.00000  7.4761  1.0000E-10  1.0000E-10  2.0591E-04  1.0296E-04  1.0000E-10  1.0296E-04  1.0000E-10  2.5261E-05  2.7982E-03                                                                                                                                                                                                                                                                                                                                                                                                                                                                                                                                                                                                            
    1725.0000     125.0000   -5425.0000  5.90984E+02  158.027  0.00000E+00  1.00000E+00  1.00000  7.4761  1.0000E-10  1.0000E-10  2.0591E-04  1.0296E-04  1.0000E-10  1.0296E-04  1.0000E-10  2.5264E-05  2.7985E-03                                                                                                                                                                                                                                                                                                                                                                                                                                                                                                                                                                                                            
    1975.0000     125.0000   -5425.0000  5.91140E+02  158.028  0.00000E+00  1.00000E+00  1.00000  7.4761  1.0000E-10  1.0000E-10  2.0591E-04  1.0296E-04  1.0000E-10  1.0296E-04  1.0000E-10  2.5265E-05  2.7985E-03                                                                                                                                                                                                                                                                                                                                                                                                                                                                                                                                                                                                            
     125.0000     125.0000   -5225.0000  5.71905E+02  153.125  0.00000E+00  1.00000E+00  1.00000  7.5192  1.0001E-10  1.0001E-10  2.0864E-04  1.0432E-04  1.0001E-10  1.0432E-04  1.0001E-10  2.2761E-05  2.6186E-03                                                                                                                                                                                                                                                                                                                                                                                                                                                                                                                                                                                                            
     375.0000     125.0000   -5225.0000  5.71762E+02  153.124  0.00000E+00  1.00000E+00  1.00000  7.5192  1.0001E-10  1.0001E-10  2.0864E-04  1.0432E-04  1.0001E-10  1.0432E-04  1.0001E-10  2.2761E-05  2.6186E-03                                                                                                                                                                                                                                                                                                                                                                                                                                                                                                                                                                                                            
     625.0000     125.0000   -5225.0000  5.70679E+02  153.118  0.00000E+00  1.00000E+00  1.00000  7.5192  1.0001E-10  1.0001E-10  2.0865E-04  1.0432E-04  1.0000E-10  1.0432E-04  1.0000E-10  2.2757E-05  2.6183E-03                                                                                                                                                                                                                                                                                                                                                                                                                                                                                                                                                                                                            
     875.0000     125.0000   -5225.0000  5.65207E+02  152.499  0.00000E+00  1.00000E+00  1.00000  7.5249  1.0001E-10  1.0001E-10  2.0898E-04  1.0449E-04  1.0001E-10  1.0449E-04  1.0001E-10  2.2459E-05  2.5962E-03                                                                                                                                                                                                                                                                                                                                                                                                                                                                                                                                                                                                            
    1050.0000     125.0000   -5225.0000  5.61019E+02   70.535  0.00000E+00  1.00000E+00  1.00000  8.6526  9.9831E-11  9.9831E-11  2.3666E-04  1.6733E-04  9.9833E-11  6.9333E-05  9.9832E-11  2.9479E-06  7.2168E-04                                                                                                                                                                                                                                                                                                                                                                                                                                                                                                                                                                                                            
    1225.0000     125.0000   -5225.0000  5.65207E+02  152.499  0.00000E+00  1.00000E+00  1.00000  7.5249  1.0001E-10  1.0001E-10  2.0898E-04  1.0449E-04  1.0001E-10  1.0449E-04  1.0001E-10  2.2459E-05  2.5962E-03                                                                                                                                                                                                                                                                                                                                                                                                                                                                                                                                                                                                            
    1475.0000     125.0000   -5225.0000  5.70679E+02  153.118  0.00000E+00  1.00000E+00  1.00000  7.5192  1.0001E-10  1.0001E-10  2.0865E-04  1.0432E-04  1.0000E-10  1.0432E-04  1.0000E-10  2.2757E-05  2.6183E-03                                                                                                                                                                                                                                                                                                                                                                                                                                                                                                                                                                                                            
    1725.0000     125.0000   -5225.0000  5.71762E+02  153.124  0.00000E+00  1.00000E+00  1.00000  7.5192  1.0001E-10  1.0001E-10  2.0864E-04  1.0432E-04  1.0001E-10  1.0432E-04  1.0001E-10  2.2761E-05  2.6186E-03                                                                                                                                                                                                                                                                                                                                                                                                                                                                                                                                                                                                            
    1975.0000     125.0000   -5225.0000  5.71905E+02  153.125  0.00000E+00  1.00000E+00  1.00000  7.5192  1.0001E-10  1.0001E-10  2.0864E-04  1.0432E-04  1.0001E-10  1.0432E-04  1.0001E-10  2.2761E-05  2.6186E-03                                                                                                                                                                                                                                                                                                                                                                                                                                                                                                                                                                                                            
     125.0000     125.0000   -4975.0000  5.46335E+02  146.874  0.00000E+00  1.00000E+00  1.00000  7.5780  1.0001E-10  1.0001E-10  2.1208E-04  1.0604E-04  1.0001E-10  1.0604E-04  1.0000E-10  1.9892E-05  2.4017E-03                                                                                                                                                                                                                                                                                                                                                                                                                                                                                                                                                                                                            
     375.0000     125.0000   -4975.0000  5.46224E+02  146.873  0.00000E+00  1.00000E+00  1.00000  7.5780  1.0001E-10  1.0001E-10  2.1208E-04  1.0604E-04  1.0000E-10  1.0604E-04  1.0000E-10  1.9892E-05  2.4017E-03                                                                                                                                                                                                                                                                                                                                                                                                                                                                                                                                                                                                            
     625.0000     125.0000   -4975.0000  5.45334E+02  146.868  0.00000E+00  1.00000E+00  1.00000  7.5780  1.0001E-10  1.0001E-10  2.1209E-04  1.0604E-04  1.0000E-10  1.0604E-04  1.0000E-10  1.9889E-05  2.4015E-03                                                                                                                                                                                                                                                                                                                                                                                                                                                                                                                                                                                                            
     875.0000     125.0000   -4975.0000  5.40574E+02  146.286  0.00000E+00  1.00000E+00  1.00000  7.5837  1.0001E-10  1.0001E-10  2.1240E-04  1.0620E-04  1.0001E-10  1.0620E-04  1.0001E-10  1.9640E-05  2.3820E-03                                                                                                                                                                                                                                                                                                                                                                                                                                                                                                                                                                                                            
    1050.0000     125.0000   -4975.0000  5.36566E+02   74.956  0.00000E+00  1.00000E+00  1.00000  8.5741  9.9974E-11  9.9974E-11  2.3814E-04  1.7009E-04  9.9976E-11  6.8051E-05  9.9974E-11  3.3799E-06  7.7966E-04                                                                                                                                                                                                                                                                                                                                                                                                                                                                                                                                                                                                            
    1225.0000     125.0000   -4975.0000  5.40574E+02  146.286  0.00000E+00  1.00000E+00  1.00000  7.5837  1.0001E-10  1.0001E-10  2.1240E-04  1.0620E-04  1.0001E-10  1.0620E-04  1.0001E-10  1.9640E-05  2.3820E-03                                                                                                                                                                                                                                                                                                                                                                                                                                                                                                                                                                                                            
    1475.0000     125.0000   -4975.0000  5.45334E+02  146.868  0.00000E+00  1.00000E+00  1.00000  7.5780  1.0001E-10  1.0001E-10  2.1209E-04  1.0604E-04  1.0000E-10  1.0604E-04  1.0000E-10  1.9889E-05  2.4015E-03                                                                                                                                                                                                                                                                                                                                                                                                                                                                                                                                                                                                            
    1725.0000     125.0000   -4975.0000  5.46224E+02  146.873  0.00000E+00  1.00000E+00  1.00000  7.5780  1.0001E-10  1.0001E-10  2.1208E-04  1.0604E-04  1.0000E-10  1.0604E-04  1.0000E-10  1.9892E-05  2.4017E-03                                                                                                                                                                                                                                                                                                                                                                                                                                                                                                                                                                                                            
    1975.0000     125.0000   -4975.0000  5.46335E+02  146.874  0.00000E+00  1.00000E+00  1.00000  7.5780  1.0001E-10  1.0001E-10  2.1208E-04  1.0604E-04  1.0001E-10  1.0604E-04  1.0000E-10  1.9892E-05  2.4017E-03                                                                                                                                                                                                                                                                                                                                                                                                                                                                                                                                                                                                            
     125.0000     125.0000   -4725.0000  5.17484E+02  140.610  0.00000E+00  1.00000E+00  1.00000  7.6411  1.0001E-10  1.0001E-10  2.1541E-04  1.0771E-04  1.0000E-10  1.0770E-04  1.0000E-10  1.7341E-05  2.1980E-03                                                                                                                                                                                                                                                                                                                                                                                                                                                                                                                                                                                                            
     375.0000     125.0000   -4725.0000  5.17451E+02  140.610  0.00000E+00  1.00000E+00  1.00000  7.6411  1.0001E-10  1.0001E-10  2.1541E-04  1.0771E-04  1.0000E-10  1.0770E-04  1.0000E-10  1.7340E-05  2.1980E-03                                                                                                                                                                                                                                                                                                                                                                                                                                                                                                                                                                                                            
     625.0000     125.0000   -4725.0000  5.17019E+02  140.607  0.00000E+00  1.00000E+00  1.00000  7.6412  1.0001E-10  1.0001E-10  2.1542E-04  1.0771E-04  1.0000E-10  1.0770E-04  1.0000E-10  1.7339E-05  2.1979E-03                                                                                                                                                                                                                                                                                                                                                                                                                                                                                                                                                                                                            
     875.0000     125.0000   -4725.0000  5.14317E+02  140.069  0.00000E+00  1.00000E+00  1.00000  7.6468  1.0001E-10  1.0001E-10  2.1568E-04  1.0784E-04  1.0001E-10  1.0784E-04  1.0001E-10  1.7136E-05  2.1810E-03                                                                                                                                                                                                                                                                                                                                                                                                                                                                                                                                                                                                            
    1050.0000     125.0000   -4725.0000  5.12204E+02   78.740  0.00000E+00  1.00000E+00  1.00000  8.5089  1.0002E-10  1.0002E-10  2.3915E-04  1.7209E-04  1.0002E-10  6.7065E-05  1.0002E-10  3.7888E-06  8.3235E-04                                                                                                                                                                                                                                                                                                                                                                                                                                                                                                                                                                                                            
    1225.0000     125.0000   -4725.0000  5.14317E+02  140.069  0.00000E+00  1.00000E+00  1.00000  7.6468  1.0001E-10  1.0001E-10  2.1568E-04  1.0784E-04  1.0001E-10  1.0784E-04  1.0001E-10  1.7136E-05  2.1810E-03                                                                                                                                                                                                                                                                                                                                                                                                                                                                                                                                                                                                            
    1475.0000     125.0000   -4725.0000  5.17019E+02  140.607  0.00000E+00  1.00000E+00  1.00000  7.6412  1.0001E-10  1.0001E-10  2.1542E-04  1.0771E-04  1.0000E-10  1.0770E-04  1.0000E-10  1.7339E-05  2.1979E-03                                                                                                                                                                                                                                                                                                                                                                                                                                                                                                                                                                                                            
    1725.0000     125.0000   -4725.0000  5.17451E+02  140.610  0.00000E+00  1.00000E+00  1.00000  7.6411  1.0001E-10  1.0001E-10  2.1541E-04  1.0771E-04  1.0000E-10  1.0770E-04  1.0000E-10  1.7340E-05  2.1980E-03                                                                                                                                                                                                                                                                                                                                                                                                                                                                                                                                                                                                            