Title="TOUGHREACT V3.30-OMP: Aqueous Total & Species Concentrations in mol/kg h2o, Surface & Exchanged Species in mol/kg h2o, Dry blocks in mol/L medium"                                                                                                                                                                                                                                                                                                                                                                                                                                                                                                                                                                                                                                                                       
Variables= "X(m)"   "Y(m)"   "Z(m)"   "P(bar)"     "T(C)"   "SatGas"   "SatLiq"     "aH2O"       "pH"        "t_na+"        "t_cl-"      "t_hco3-"       "t_ca+2"      "t_so4-2"       "t_mg+2"       "t_ba+2"       "t_al+3"     "t_h4sio4"                                                                                                                                                                                                                                                                                                                                                                                                                                                                                                                                                                                    
Zone T= "3.16887907E+01 yr" I=      9J=     10K=     23F=Point 
     125.0000     125.0000   -5425.0000  5.88876E+02  157.822  0.00000E+00  1.00000E+00  1.00000  7.4778  9.9997E-11  9.9997E-11  2.0602E-04  1.0301E-04  9.9997E-11  1.0301E-04  9.9997E-11  2.5155E-05  2.7907E-03                                                                                                                                                                                                                                                                                                                                                                                                                                                                                                                                                                                                            
     375.0000     125.0000   -5425.0000  5.87897E+02  157.817  0.00000E+00  1.00000E+00  1.00000  7.4779  9.9997E-11  9.9997E-11  2.0603E-04  1.0301E-04  9.9997E-11  1.0301E-04  9.9997E-11  2.5153E-05  2.7906E-03                                                                                                                                                                                                                                                                                                                                                                                                                                                                                                                                                                                                            
     625.0000     125.0000   -5425.0000  5.85155E+02  157.771  0.00000E+00  1.00000E+00  1.00000  7.4783  9.9997E-11  9.9997E-11  2.0605E-04  1.0302E-04  9.9998E-11  1.0303E-04  9.9998E-11  2.5128E-05  2.7888E-03                                                                                                                                                                                                                                                                                                                                                                                                                                                                                                                                                                                                            
     875.0000     125.0000   -5425.0000  5.80114E+02  154.970  0.00000E+00  1.00000E+00  1.00000  7.5027  1.0000E-10  1.0000E-10  2.0761E-04  1.0380E-04  1.0001E-10  1.0380E-04  1.0000E-10  2.3677E-05  2.6853E-03                                                                                                                                                                                                                                                                                                                                                                                                                                                                                                                                                                                                            
    1050.0000     125.0000   -5425.0000  5.79836E+02   81.853  0.00000E+00  1.00000E+00  1.00000  8.4559  9.9565E-11  9.9565E-11  2.3943E-04  1.7227E-04  9.9568E-11  6.7168E-05  9.9566E-11  4.1477E-06  8.7768E-04                                                                                                                                                                                                                                                                                                                                                                                                                                                                                                                                                                                                            
    1225.0000     125.0000   -5425.0000  5.80114E+02  154.970  0.00000E+00  1.00000E+00  1.00000  7.5027  1.0000E-10  1.0000E-10  2.0761E-04  1.0380E-04  1.0001E-10  1.0380E-04  1.0000E-10  2.3677E-05  2.6853E-03                                                                                                                                                                                                                                                                                                                                                                                                                                                                                                                                                                                                            
    1475.0000     125.0000   -5425.0000  5.85155E+02  157.771  0.00000E+00  1.00000E+00  1.00000  7.4783  9.9997E-11  9.9997E-11  2.0605E-04  1.0302E-04  9.9998E-11  1.0303E-04  9.9998E-11  2.5128E-05  2.7888E-03                                                                                                                                                                                                                                                                                                                                                                                                                                                                                                                                                                                                            
    1725.0000     125.0000   -5425.0000  5.87897E+02  157.817  0.00000E+00  1.00000E+00  1.00000  7.4779  9.9997E-11  9.9997E-11  2.0603E-04  1.0301E-04  9.9997E-11  1.0301E-04  9.9997E-11  2.5153E-05  2.7906E-03                                                                                                                                                                                                                                                                                                                                                                                                                                                                                                                                                                                                            
    1975.0000     125.0000   -5425.0000  5.88876E+02  157.822  0.00000E+00  1.00000E+00  1.00000  7.4778  9.9997E-11  9.9997E-11  2.0602E-04  1.0301E-04  9.9997E-11  1.0301E-04  9.9997E-11  2.5155E-05  2.7907E-03                                                                                                                                                                                                                                                                                                                                                                                                                                                                                                                                                                                                            
     125.0000     125.0000   -5225.0000  5.69696E+02  153.111  0.00000E+00  1.00000E+00  1.00000  7.5192  1.0001E-10  1.0001E-10  2.0866E-04  1.0433E-04  1.0000E-10  1.0432E-04  1.0000E-10  2.2753E-05  2.6181E-03                                                                                                                                                                                                                                                                                                                                                                                                                                                                                                                                                                                                            
     375.0000     125.0000   -5225.0000  5.68780E+02  153.107  0.00000E+00  1.00000E+00  1.00000  7.5193  1.0001E-10  1.0001E-10  2.0866E-04  1.0433E-04  1.0000E-10  1.0433E-04  1.0000E-10  2.2750E-05  2.6179E-03                                                                                                                                                                                                                                                                                                                                                                                                                                                                                                                                                                                                            
     625.0000     125.0000   -5225.0000  5.66166E+02  153.064  0.00000E+00  1.00000E+00  1.00000  7.5197  1.0000E-10  1.0000E-10  2.0868E-04  1.0434E-04  1.0000E-10  1.0434E-04  1.0000E-10  2.2730E-05  2.6164E-03                                                                                                                                                                                                                                                                                                                                                                                                                                                                                                                                                                                                            
     875.0000     125.0000   -5225.0000  5.61182E+02  150.498  0.00000E+00  1.00000E+00  1.00000  7.5434  1.0001E-10  1.0001E-10  2.1009E-04  1.0505E-04  1.0001E-10  1.0504E-04  1.0001E-10  2.1514E-05  2.5257E-03                                                                                                                                                                                                                                                                                                                                                                                                                                                                                                                                                                                                            
    1050.0000     125.0000   -5225.0000  5.60357E+02   84.858  0.00000E+00  1.00000E+00  1.00000  8.4075  9.9532E-11  9.9532E-11  2.4057E-04  1.7548E-04  9.9535E-11  6.5094E-05  9.9533E-11  4.5380E-06  9.2405E-04                                                                                                                                                                                                                                                                                                                                                                                                                                                                                                                                                                                                            
    1225.0000     125.0000   -5225.0000  5.61182E+02  150.498  0.00000E+00  1.00000E+00  1.00000  7.5434  1.0001E-10  1.0001E-10  2.1009E-04  1.0505E-04  1.0001E-10  1.0504E-04  1.0001E-10  2.1514E-05  2.5257E-03                                                                                                                                                                                                                                                                                                                                                                                                                                                                                                                                                                                                            
    1475.0000     125.0000   -5225.0000  5.66166E+02  153.064  0.00000E+00  1.00000E+00  1.00000  7.5197  1.0000E-10  1.0000E-10  2.0868E-04  1.0434E-04  1.0000E-10  1.0434E-04  1.0000E-10  2.2730E-05  2.6164E-03                                                                                                                                                                                                                                                                                                                                                                                                                                                                                                                                                                                                            
    1725.0000     125.0000   -5225.0000  5.68780E+02  153.107  0.00000E+00  1.00000E+00  1.00000  7.5193  1.0001E-10  1.0001E-10  2.0866E-04  1.0433E-04  1.0000E-10  1.0433E-04  1.0000E-10  2.2750E-05  2.6179E-03                                                                                                                                                                                                                                                                                                                                                                                                                                                                                                                                                                                                            
    1975.0000     125.0000   -5225.0000  5.69696E+02  153.111  0.00000E+00  1.00000E+00  1.00000  7.5192  1.0001E-10  1.0001E-10  2.0866E-04  1.0433E-04  1.0000E-10  1.0432E-04  1.0000E-10  2.2753E-05  2.6181E-03                                                                                                                                                                                                                                                                                                                                                                                                                                                                                                                                                                                                            
     125.0000     125.0000   -4975.0000  5.43423E+02  146.864  0.00000E+00  1.00000E+00  1.00000  7.5780  1.0001E-10  1.0001E-10  2.1210E-04  1.0605E-04  1.0000E-10  1.0604E-04  1.0000E-10  1.9886E-05  2.4013E-03                                                                                                                                                                                                                                                                                                                                                                                                                                                                                                                                                                                                            
     375.0000     125.0000   -4975.0000  5.42742E+02  146.861  0.00000E+00  1.00000E+00  1.00000  7.5780  1.0001E-10  1.0001E-10  2.1210E-04  1.0605E-04  1.0000E-10  1.0605E-04  1.0000E-10  1.9884E-05  2.4012E-03                                                                                                                                                                                                                                                                                                                                                                                                                                                                                                                                                                                                            
     625.0000     125.0000   -4975.0000  5.40725E+02  146.823  0.00000E+00  1.00000E+00  1.00000  7.5784  1.0001E-10  1.0001E-10  2.1212E-04  1.0606E-04  1.0000E-10  1.0606E-04  1.0000E-10  1.9868E-05  2.3999E-03                                                                                                                                                                                                                                                                                                                                                                                                                                                                                                                                                                                                            
     875.0000     125.0000   -4975.0000  5.36697E+02  144.559  0.00000E+00  1.00000E+00  1.00000  7.6008  1.0001E-10  1.0001E-10  2.1333E-04  1.0666E-04  1.0001E-10  1.0666E-04  1.0001E-10  1.8914E-05  2.3248E-03                                                                                                                                                                                                                                                                                                                                                                                                                                                                                                                                                                                                            
    1050.0000     125.0000   -4975.0000  5.36060E+02   86.653  0.00000E+00  1.00000E+00  1.00000  8.3792  9.9571E-11  9.9571E-11  2.4124E-04  1.7743E-04  9.9573E-11  6.3811E-05  9.9572E-11  4.7862E-06  9.5272E-04                                                                                                                                                                                                                                                                                                                                                                                                                                                                                                                                                                                                            
    1225.0000     125.0000   -4975.0000  5.36697E+02  144.559  0.00000E+00  1.00000E+00  1.00000  7.6008  1.0001E-10  1.0001E-10  2.1333E-04  1.0666E-04  1.0001E-10  1.0666E-04  1.0001E-10  1.8914E-05  2.3248E-03                                                                                                                                                                                                                                                                                                                                                                                                                                                                                                                                                                                                            
    1475.0000     125.0000   -4975.0000  5.40725E+02  146.823  0.00000E+00  1.00000E+00  1.00000  7.5784  1.0001E-10  1.0001E-10  2.1212E-04  1.0606E-04  1.0000E-10  1.0606E-04  1.0000E-10  1.9868E-05  2.3999E-03                                                                                                                                                                                                                                                                                                                                                                                                                                                                                                                                                                                                            
    1725.0000     125.0000   -4975.0000  5.42742E+02  146.861  0.00000E+00  1.00000E+00  1.00000  7.5780  1.0001E-10  1.0001E-10  2.1210E-04  1.0605E-04  1.0000E-10  1.0605E-04  1.0000E-10  1.9884E-05  2.4012E-03                                                                                                                                                                                                                                                                                                                                                                                                                                                                                                                                                                                                            
    1975.0000     125.0000   -4975.0000  5.43423E+02  146.864  0.00000E+00  1.00000E+00  1.00000  7.5780  1.0001E-10  1.0001E-10  2.1210E-04  1.0605E-04  1.0000E-10  1.0604E-04  1.0000E-10  1.9886E-05  2.4013E-03                                                                                                                                                                                                                                                                                                                                                                                                                                                                                                                                                                                                            
     125.0000     125.0000   -4725.0000  5.14350E+02  140.600  0.00000E+00  1.00000E+00  1.00000  7.6412  1.0001E-10  1.0001E-10  2.1543E-04  1.0772E-04  1.0000E-10  1.0771E-04  1.0000E-10  1.7335E-05  2.1977E-03                                                                                                                                                                                                                                                                                                                                                                                                                                                                                                                                                                                                            
     375.0000     125.0000   -4725.0000  5.14119E+02  140.589  0.00000E+00  1.00000E+00  1.00000  7.6413  1.0001E-10  1.0001E-10  2.1544E-04  1.0772E-04  1.0000E-10  1.0771E-04  1.0000E-10  1.7330E-05  2.1973E-03                                                                                                                                                                                                                                                                                                                                                                                                                                                                                                                                                                                                            
     625.0000     125.0000   -4725.0000  5.13325E+02  140.519  0.00000E+00  1.00000E+00  1.00000  7.6421  1.0001E-10  1.0001E-10  2.1546E-04  1.0773E-04  1.0001E-10  1.0773E-04  1.0001E-10  1.7305E-05  2.1951E-03                                                                                                                                                                                                                                                                                                                                                                                                                                                                                                                                                                                                            
     875.0000     125.0000   -4725.0000  5.11502E+02  138.329  0.00000E+00  1.00000E+00  1.00000  7.6652  1.0001E-10  1.0001E-10  2.1657E-04  1.0829E-04  1.0002E-10  1.0828E-04  1.0001E-10  1.6486E-05  2.1271E-03                                                                                                                                                                                                                                                                                                                                                                                                                                                                                                                                                                                                            
    1050.0000     125.0000   -4725.0000  5.11805E+02   88.027  0.00000E+00  1.00000E+00  1.00000  8.3569  9.9644E-11  9.9644E-11  2.4115E-04  1.7719E-04  9.9646E-11  6.3964E-05  9.9645E-11  4.9727E-06  9.7484E-04                                                                                                                                                                                                                                                                                                                                                                                                                                                                                                                                                                                                            
    1225.0000     125.0000   -4725.0000  5.11502E+02  138.329  0.00000E+00  1.00000E+00  1.00000  7.6652  1.0001E-10  1.0001E-10  2.1657E-04  1.0829E-04  1.0002E-10  1.0828E-04  1.0001E-10  1.6486E-05  2.1271E-03                                                                                                                                                                                                                                                                                                                                                                                                                                                                                                                                                                                                            
    1475.0000     125.0000   -4725.0000  5.13325E+02  140.519  0.00000E+00  1.00000E+00  1.00000  7.6421  1.0001E-10  1.0001E-10  2.1546E-04  1.0773E-04  1.0001E-10  1.0773E-04  1.0001E-10  1.7305E-05  2.1951E-03                                                                                                                                                                                                                                                                                                                                                                                                                                                                                                                                                                                                            
    1725.0000     125.0000   -4725.0000  5.14119E+02  140.589  0.00000E+00  1.00000E+00  1.00000  7.6413  1.0001E-10  1.0001E-10  2.1544E-04  1.0772E-04  1.0000E-10  1.0771E-04  1.0000E-10  1.7330E-05  2.1973E-03                                                                                                                                                                                                                                                                                                                                                                                                                                                                                                                                                                                                            