Title="TOUGHREACT V3.30-OMP: Aqueous Total & Species Concentrations in mol/kg h2o, Surface & Exchanged Species in mol/kg h2o, Dry blocks in mol/L medium"                                                                                                                                                                                                                                                                                                                                                                                                                                                                                                                                                                                                                                                                       
Variables= "X(m)"   "Y(m)"   "Z(m)"   "P(bar)"     "T(C)"   "SatGas"   "SatLiq"     "aH2O"       "pH"        "t_na+"        "t_cl-"      "t_hco3-"       "t_ca+2"      "t_so4-2"       "t_mg+2"       "t_ba+2"       "t_al+3"     "t_h4sio4"                                                                                                                                                                                                                                                                                                                                                                                                                                                                                                                                                                                    
Zone T= "3.16887907E-02 yr" I=      9J=     10K=     23F=Point 
     125.0000     125.0000   -5425.0000  5.92295E+02  158.126  0.00000E+00  1.00000E+00  1.00000  7.4752  1.0001E-10  1.0001E-10  2.0586E-04  1.0293E-04  1.0001E-10  1.0293E-04  1.0001E-10  2.5316E-05  2.8022E-03                                                                                                                                                                                                                                                                                                                                                                                                                                                                                                                                                                                                            
     375.0000     125.0000   -5425.0000  5.92295E+02  158.126  0.00000E+00  1.00000E+00  1.00000  7.4752  1.0001E-10  1.0001E-10  2.0586E-04  1.0293E-04  1.0001E-10  1.0293E-04  1.0001E-10  2.5316E-05  2.8022E-03                                                                                                                                                                                                                                                                                                                                                                                                                                                                                                                                                                                                            
     625.0000     125.0000   -5425.0000  5.92295E+02  158.126  0.00000E+00  1.00000E+00  1.00000  7.4752  1.0001E-10  1.0001E-10  2.0586E-04  1.0293E-04  1.0001E-10  1.0293E-04  1.0001E-10  2.5316E-05  2.8022E-03                                                                                                                                                                                                                                                                                                                                                                                                                                                                                                                                                                                                            
     875.0000     125.0000   -5425.0000  5.92253E+02  158.126  0.00000E+00  1.00000E+00  1.00000  7.4752  1.0001E-10  1.0001E-10  2.0586E-04  1.0293E-04  1.0001E-10  1.0293E-04  1.0001E-10  2.5316E-05  2.8022E-03                                                                                                                                                                                                                                                                                                                                                                                                                                                                                                                                                                                                            
    1050.0000     125.0000   -5425.0000  5.75762E+02  158.030  0.00000E+00  1.00000E+00  1.00000  7.4760  1.0001E-10  1.0001E-10  2.0591E-04  1.0296E-04  1.0001E-10  1.0296E-04  1.0001E-10  2.5265E-05  2.7985E-03                                                                                                                                                                                                                                                                                                                                                                                                                                                                                                                                                                                                            
    1225.0000     125.0000   -5425.0000  5.92253E+02  158.126  0.00000E+00  1.00000E+00  1.00000  7.4752  1.0001E-10  1.0001E-10  2.0586E-04  1.0293E-04  1.0001E-10  1.0293E-04  1.0001E-10  2.5316E-05  2.8022E-03                                                                                                                                                                                                                                                                                                                                                                                                                                                                                                                                                                                                            
    1475.0000     125.0000   -5425.0000  5.92295E+02  158.126  0.00000E+00  1.00000E+00  1.00000  7.4752  1.0001E-10  1.0001E-10  2.0586E-04  1.0293E-04  1.0001E-10  1.0293E-04  1.0001E-10  2.5316E-05  2.8022E-03                                                                                                                                                                                                                                                                                                                                                                                                                                                                                                                                                                                                            
    1725.0000     125.0000   -5425.0000  5.92295E+02  158.126  0.00000E+00  1.00000E+00  1.00000  7.4752  1.0001E-10  1.0001E-10  2.0586E-04  1.0293E-04  1.0001E-10  1.0293E-04  1.0001E-10  2.5316E-05  2.8022E-03                                                                                                                                                                                                                                                                                                                                                                                                                                                                                                                                                                                                            
    1975.0000     125.0000   -5425.0000  5.92295E+02  158.126  0.00000E+00  1.00000E+00  1.00000  7.4752  1.0001E-10  1.0001E-10  2.0586E-04  1.0293E-04  1.0001E-10  1.0293E-04  1.0001E-10  2.5316E-05  2.8022E-03                                                                                                                                                                                                                                                                                                                                                                                                                                                                                                                                                                                                            
     125.0000     125.0000   -5225.0000  5.72219E+02  153.126  0.00000E+00  1.00000E+00  1.00000  7.5192  1.0001E-10  1.0001E-10  2.0863E-04  1.0432E-04  1.0001E-10  1.0432E-04  1.0001E-10  2.2763E-05  2.6186E-03                                                                                                                                                                                                                                                                                                                                                                                                                                                                                                                                                                                                            
     375.0000     125.0000   -5225.0000  5.72219E+02  153.126  0.00000E+00  1.00000E+00  1.00000  7.5192  1.0001E-10  1.0001E-10  2.0863E-04  1.0432E-04  1.0001E-10  1.0432E-04  1.0001E-10  2.2763E-05  2.6186E-03                                                                                                                                                                                                                                                                                                                                                                                                                                                                                                                                                                                                            
     625.0000     125.0000   -5225.0000  5.72219E+02  153.126  0.00000E+00  1.00000E+00  1.00000  7.5192  1.0001E-10  1.0001E-10  2.0863E-04  1.0432E-04  1.0001E-10  1.0432E-04  1.0001E-10  2.2763E-05  2.6186E-03                                                                                                                                                                                                                                                                                                                                                                                                                                                                                                                                                                                                            
     875.0000     125.0000   -5225.0000  5.72182E+02  153.126  0.00000E+00  1.00000E+00  1.00000  7.5192  1.0001E-10  1.0001E-10  2.0863E-04  1.0432E-04  1.0001E-10  1.0432E-04  1.0001E-10  2.2762E-05  2.6186E-03                                                                                                                                                                                                                                                                                                                                                                                                                                                                                                                                                                                                            
    1050.0000     125.0000   -5225.0000  5.57308E+02  153.050  0.00000E+00  1.00000E+00  1.00000  7.5199  1.0001E-10  1.0001E-10  2.0868E-04  1.0434E-04  1.0001E-10  1.0434E-04  1.0001E-10  2.2726E-05  2.6159E-03                                                                                                                                                                                                                                                                                                                                                                                                                                                                                                                                                                                                            
    1225.0000     125.0000   -5225.0000  5.72182E+02  153.126  0.00000E+00  1.00000E+00  1.00000  7.5192  1.0001E-10  1.0001E-10  2.0863E-04  1.0432E-04  1.0001E-10  1.0432E-04  1.0001E-10  2.2762E-05  2.6186E-03                                                                                                                                                                                                                                                                                                                                                                                                                                                                                                                                                                                                            
    1475.0000     125.0000   -5225.0000  5.72219E+02  153.126  0.00000E+00  1.00000E+00  1.00000  7.5192  1.0001E-10  1.0001E-10  2.0863E-04  1.0432E-04  1.0001E-10  1.0432E-04  1.0001E-10  2.2763E-05  2.6186E-03                                                                                                                                                                                                                                                                                                                                                                                                                                                                                                                                                                                                            
    1725.0000     125.0000   -5225.0000  5.72219E+02  153.126  0.00000E+00  1.00000E+00  1.00000  7.5192  1.0001E-10  1.0001E-10  2.0863E-04  1.0432E-04  1.0001E-10  1.0432E-04  1.0001E-10  2.2763E-05  2.6186E-03                                                                                                                                                                                                                                                                                                                                                                                                                                                                                                                                                                                                            
    1975.0000     125.0000   -5225.0000  5.72219E+02  153.126  0.00000E+00  1.00000E+00  1.00000  7.5192  1.0001E-10  1.0001E-10  2.0863E-04  1.0432E-04  1.0001E-10  1.0432E-04  1.0001E-10  2.2763E-05  2.6186E-03                                                                                                                                                                                                                                                                                                                                                                                                                                                                                                                                                                                                            
     125.0000     125.0000   -4975.0000  5.47116E+02  146.876  0.00000E+00  1.00000E+00  1.00000  7.5779  1.0001E-10  1.0001E-10  2.1207E-04  1.0604E-04  1.0001E-10  1.0604E-04  1.0001E-10  1.9894E-05  2.4017E-03                                                                                                                                                                                                                                                                                                                                                                                                                                                                                                                                                                                                            
     375.0000     125.0000   -4975.0000  5.47116E+02  146.876  0.00000E+00  1.00000E+00  1.00000  7.5779  1.0001E-10  1.0001E-10  2.1207E-04  1.0604E-04  1.0001E-10  1.0604E-04  1.0001E-10  1.9894E-05  2.4017E-03                                                                                                                                                                                                                                                                                                                                                                                                                                                                                                                                                                                                            
     625.0000     125.0000   -4975.0000  5.47116E+02  146.876  0.00000E+00  1.00000E+00  1.00000  7.5779  1.0001E-10  1.0001E-10  2.1207E-04  1.0604E-04  1.0001E-10  1.0604E-04  1.0001E-10  1.9894E-05  2.4017E-03                                                                                                                                                                                                                                                                                                                                                                                                                                                                                                                                                                                                            
     875.0000     125.0000   -4975.0000  5.47085E+02  146.876  0.00000E+00  1.00000E+00  1.00000  7.5779  1.0001E-10  1.0001E-10  2.1207E-04  1.0604E-04  1.0001E-10  1.0604E-04  1.0001E-10  1.9894E-05  2.4017E-03                                                                                                                                                                                                                                                                                                                                                                                                                                                                                                                                                                                                            
    1050.0000     125.0000   -4975.0000  5.34151E+02  146.830  0.00000E+00  1.00000E+00  1.00000  7.5784  1.0001E-10  1.0001E-10  2.1210E-04  1.0605E-04  1.0001E-10  1.0605E-04  1.0001E-10  1.9874E-05  2.4002E-03                                                                                                                                                                                                                                                                                                                                                                                                                                                                                                                                                                                                            
    1225.0000     125.0000   -4975.0000  5.47085E+02  146.876  0.00000E+00  1.00000E+00  1.00000  7.5779  1.0001E-10  1.0001E-10  2.1207E-04  1.0604E-04  1.0001E-10  1.0604E-04  1.0001E-10  1.9894E-05  2.4017E-03                                                                                                                                                                                                                                                                                                                                                                                                                                                                                                                                                                                                            
    1475.0000     125.0000   -4975.0000  5.47116E+02  146.876  0.00000E+00  1.00000E+00  1.00000  7.5779  1.0001E-10  1.0001E-10  2.1207E-04  1.0604E-04  1.0001E-10  1.0604E-04  1.0001E-10  1.9894E-05  2.4017E-03                                                                                                                                                                                                                                                                                                                                                                                                                                                                                                                                                                                                            
    1725.0000     125.0000   -4975.0000  5.47116E+02  146.876  0.00000E+00  1.00000E+00  1.00000  7.5779  1.0001E-10  1.0001E-10  2.1207E-04  1.0604E-04  1.0001E-10  1.0604E-04  1.0001E-10  1.9894E-05  2.4017E-03                                                                                                                                                                                                                                                                                                                                                                                                                                                                                                                                                                                                            
    1975.0000     125.0000   -4975.0000  5.47116E+02  146.876  0.00000E+00  1.00000E+00  1.00000  7.5779  1.0001E-10  1.0001E-10  2.1207E-04  1.0604E-04  1.0001E-10  1.0604E-04  1.0001E-10  1.9894E-05  2.4017E-03                                                                                                                                                                                                                                                                                                                                                                                                                                                                                                                                                                                                            
     125.0000     125.0000   -4725.0000  5.21998E+02  140.626  0.00000E+00  1.00000E+00  1.00000  7.6410  1.0001E-10  1.0001E-10  2.1539E-04  1.0770E-04  1.0001E-10  1.0770E-04  1.0001E-10  1.7348E-05  2.1985E-03                                                                                                                                                                                                                                                                                                                                                                                                                                                                                                                                                                                                            
     375.0000     125.0000   -4725.0000  5.21997E+02  140.626  0.00000E+00  1.00000E+00  1.00000  7.6410  1.0001E-10  1.0001E-10  2.1539E-04  1.0770E-04  1.0001E-10  1.0770E-04  1.0001E-10  1.7348E-05  2.1985E-03                                                                                                                                                                                                                                                                                                                                                                                                                                                                                                                                                                                                            
     625.0000     125.0000   -4725.0000  5.21995E+02  140.626  0.00000E+00  1.00000E+00  1.00000  7.6410  1.0001E-10  1.0001E-10  2.1539E-04  1.0770E-04  1.0001E-10  1.0770E-04  1.0001E-10  1.7348E-05  2.1985E-03                                                                                                                                                                                                                                                                                                                                                                                                                                                                                                                                                                                                            
     875.0000     125.0000   -4725.0000  5.21967E+02  140.626  0.00000E+00  1.00000E+00  1.00000  7.6410  1.0001E-10  1.0001E-10  2.1539E-04  1.0770E-04  1.0001E-10  1.0770E-04  1.0001E-10  1.7348E-05  2.1985E-03                                                                                                                                                                                                                                                                                                                                                                                                                                                                                                                                                                                                            
    1050.0000     125.0000   -4725.0000  5.10897E+02  140.605  0.00000E+00  1.00000E+00  1.00000  7.6412  1.0001E-10  1.0001E-10  2.1540E-04  1.0770E-04  1.0001E-10  1.0770E-04  1.0001E-10  1.7341E-05  2.1978E-03                                                                                                                                                                                                                                                                                                                                                                                                                                                                                                                                                                                                            
    1225.0000     125.0000   -4725.0000  5.21967E+02  140.626  0.00000E+00  1.00000E+00  1.00000  7.6410  1.0001E-10  1.0001E-10  2.1539E-04  1.0770E-04  1.0001E-10  1.0770E-04  1.0001E-10  1.7348E-05  2.1985E-03                                                                                                                                                                                                                                                                                                                                                                                                                                                                                                                                                                                                            
    1475.0000     125.0000   -4725.0000  5.21995E+02  140.626  0.00000E+00  1.00000E+00  1.00000  7.6410  1.0001E-10  1.0001E-10  2.1539E-04  1.0770E-04  1.0001E-10  1.0770E-04  1.0001E-10  1.7348E-05  2.1985E-03                                                                                                                                                                                                                                                                                                                                                                                                                                                                                                                                                                                                            
    1725.0000     125.0000   -4725.0000  5.21997E+02  140.626  0.00000E+00  1.00000E+00  1.00000  7.6410  1.0001E-10  1.0001E-10  2.1539E-04  1.0770E-04  1.0001E-10  1.0770E-04  1.0001E-10  1.7348E-05  2.1985E-03                                                                                                                                                                                                                                                                                                                                                                                                                                                                                                                                                                                                            