Title="TOUGHREACT V3.30-OMP: Aqueous Total & Species Concentrations in mol/kg h2o, Surface & Exchanged Species in mol/kg h2o, Dry blocks in mol/L medium"                                                                                                                                                                                                                                                                                                                                                                                                                                                                                                                                                                                                                                                                       
Variables= "X(m)"   "Y(m)"   "Z(m)"   "P(bar)"     "T(C)"   "SatGas"   "SatLiq"     "aH2O"       "pH"        "t_na+"        "t_cl-"      "t_hco3-"       "t_ca+2"      "t_so4-2"       "t_mg+2"       "t_ba+2"       "t_al+3"     "t_h4sio4"                                                                                                                                                                                                                                                                                                                                                                                                                                                                                                                                                                                    
Zone T= "3.16887907E+03 yr" I=      9J=     10K=     23F=Point 
     125.0000     125.0000   -5425.0000  5.62698E+02  131.641  0.00000E+00  1.00000E+00  1.00000  7.7389  9.9979E-11  9.9979E-11  2.1983E-04  1.0991E-04  1.0001E-10  1.0992E-04  9.9990E-11  1.4178E-05  1.9294E-03                                                                                                                                                                                                                                                                                                                                                                                                                                                                                                                                                                                                            
     375.0000     125.0000   -5425.0000  5.63127E+02  125.708  0.00000E+00  1.00000E+00  1.00000  7.8081  1.0006E-10  1.0006E-10  2.2248E-04  1.1123E-04  1.0010E-10  1.1124E-04  1.0007E-10  1.2362E-05  1.7660E-03                                                                                                                                                                                                                                                                                                                                                                                                                                                                                                                                                                                                            
     625.0000     125.0000   -5425.0000  5.64023E+02  113.899  0.00000E+00  1.00000E+00  1.00000  7.9569  1.0027E-10  1.0027E-10  2.2683E-04  1.1361E-04  1.0034E-10  1.1322E-04  1.0029E-10  9.3123E-06  1.4732E-03                                                                                                                                                                                                                                                                                                                                                                                                                                                                                                                                                                                                            
     875.0000     125.0000   -5425.0000  5.65410E+02   97.200  0.00000E+00  1.00000E+00  1.00000  8.1925  1.0066E-10  1.0066E-10  2.3064E-04  1.2117E-04  1.0077E-10  1.0948E-04  1.0069E-10  6.0718E-06  1.1270E-03                                                                                                                                                                                                                                                                                                                                                                                                                                                                                                                                                                                                            
    1050.0000     125.0000   -5425.0000  5.66275E+02   84.006  0.00000E+00  1.00000E+00  1.00000  8.4304  1.0080E-10  1.0080E-10  2.4784E-04  1.9394E-04  1.0080E-10  5.3886E-05  1.0080E-10  4.5218E-06  9.1402E-04                                                                                                                                                                                                                                                                                                                                                                                                                                                                                                                                                                                                            
    1225.0000     125.0000   -5425.0000  5.65410E+02   97.200  0.00000E+00  1.00000E+00  1.00000  8.1925  1.0066E-10  1.0066E-10  2.3064E-04  1.2117E-04  1.0077E-10  1.0948E-04  1.0069E-10  6.0718E-06  1.1270E-03                                                                                                                                                                                                                                                                                                                                                                                                                                                                                                                                                                                                            
    1475.0000     125.0000   -5425.0000  5.64023E+02  113.899  0.00000E+00  1.00000E+00  1.00000  7.9569  1.0027E-10  1.0027E-10  2.2683E-04  1.1361E-04  1.0034E-10  1.1322E-04  1.0029E-10  9.3123E-06  1.4732E-03                                                                                                                                                                                                                                                                                                                                                                                                                                                                                                                                                                                                            
    1725.0000     125.0000   -5425.0000  5.63127E+02  125.708  0.00000E+00  1.00000E+00  1.00000  7.8081  1.0006E-10  1.0006E-10  2.2248E-04  1.1123E-04  1.0010E-10  1.1124E-04  1.0007E-10  1.2362E-05  1.7660E-03                                                                                                                                                                                                                                                                                                                                                                                                                                                                                                                                                                                                            
    1975.0000     125.0000   -5425.0000  5.62698E+02  131.641  0.00000E+00  1.00000E+00  1.00000  7.7389  9.9979E-11  9.9979E-11  2.1983E-04  1.0991E-04  1.0001E-10  1.0992E-04  9.9990E-11  1.4178E-05  1.9294E-03                                                                                                                                                                                                                                                                                                                                                                                                                                                                                                                                                                                                            
     125.0000     125.0000   -5225.0000  5.43933E+02  129.351  0.00000E+00  1.00000E+00  1.00000  7.7649  1.0005E-10  1.0005E-10  2.2097E-04  1.1048E-04  1.0007E-10  1.1047E-04  1.0004E-10  1.3443E-05  1.8649E-03                                                                                                                                                                                                                                                                                                                                                                                                                                                                                                                                                                                                            
     375.0000     125.0000   -5225.0000  5.44275E+02  123.674  0.00000E+00  1.00000E+00  1.00000  7.8324  1.0012E-10  1.0012E-10  2.2340E-04  1.1170E-04  1.0015E-10  1.1168E-04  1.0012E-10  1.1778E-05  1.7125E-03                                                                                                                                                                                                                                                                                                                                                                                                                                                                                                                                                                                                            
     625.0000     125.0000   -5225.0000  5.44998E+02  112.409  0.00000E+00  1.00000E+00  1.00000  7.9766  1.0031E-10  1.0031E-10  2.2731E-04  1.1378E-04  1.0038E-10  1.1352E-04  1.0032E-10  8.9739E-06  1.4391E-03                                                                                                                                                                                                                                                                                                                                                                                                                                                                                                                                                                                                            
     875.0000     125.0000   -5225.0000  5.46125E+02   96.488  0.00000E+00  1.00000E+00  1.00000  8.2031  1.0068E-10  1.0068E-10  2.3071E-04  1.2012E-04  1.0079E-10  1.1060E-04  1.0071E-10  5.9552E-06  1.1138E-03                                                                                                                                                                                                                                                                                                                                                                                                                                                                                                                                                                                                            
    1050.0000     125.0000   -5225.0000  5.46817E+02   83.785  0.00000E+00  1.00000E+00  1.00000  8.4341  1.0084E-10  1.0084E-10  2.4785E-04  1.9397E-04  1.0084E-10  5.3863E-05  1.0084E-10  4.4936E-06  9.1063E-04                                                                                                                                                                                                                                                                                                                                                                                                                                                                                                                                                                                                            
    1225.0000     125.0000   -5225.0000  5.46125E+02   96.488  0.00000E+00  1.00000E+00  1.00000  8.2031  1.0068E-10  1.0068E-10  2.3071E-04  1.2012E-04  1.0079E-10  1.1060E-04  1.0071E-10  5.9552E-06  1.1138E-03                                                                                                                                                                                                                                                                                                                                                                                                                                                                                                                                                                                                            
    1475.0000     125.0000   -5225.0000  5.44998E+02  112.409  0.00000E+00  1.00000E+00  1.00000  7.9766  1.0031E-10  1.0031E-10  2.2731E-04  1.1378E-04  1.0038E-10  1.1352E-04  1.0032E-10  8.9739E-06  1.4391E-03                                                                                                                                                                                                                                                                                                                                                                                                                                                                                                                                                                                                            
    1725.0000     125.0000   -5225.0000  5.44275E+02  123.674  0.00000E+00  1.00000E+00  1.00000  7.8324  1.0012E-10  1.0012E-10  2.2340E-04  1.1170E-04  1.0015E-10  1.1168E-04  1.0012E-10  1.1778E-05  1.7125E-03                                                                                                                                                                                                                                                                                                                                                                                                                                                                                                                                                                                                            
    1975.0000     125.0000   -5225.0000  5.43933E+02  129.351  0.00000E+00  1.00000E+00  1.00000  7.7649  1.0005E-10  1.0005E-10  2.2097E-04  1.1048E-04  1.0007E-10  1.1047E-04  1.0004E-10  1.3443E-05  1.8649E-03                                                                                                                                                                                                                                                                                                                                                                                                                                                                                                                                                                                                            
     125.0000     125.0000   -4975.0000  5.20632E+02  121.809  0.00000E+00  1.00000E+00  1.00000  7.8552  1.0018E-10  1.0019E-10  2.2416E-04  1.1212E-04  1.0022E-10  1.1203E-04  1.0018E-10  1.1266E-05  1.6646E-03                                                                                                                                                                                                                                                                                                                                                                                                                                                                                                                                                                                                            
     375.0000     125.0000   -4975.0000  5.20860E+02  116.948  0.00000E+00  1.00000E+00  1.00000  7.9167  1.0025E-10  1.0025E-10  2.2593E-04  1.1300E-04  1.0029E-10  1.1292E-04  1.0025E-10  1.0026E-05  1.5447E-03                                                                                                                                                                                                                                                                                                                                                                                                                                                                                                                                                                                                            
     625.0000     125.0000   -4975.0000  5.21340E+02  107.492  0.00000E+00  1.00000E+00  1.00000  8.0435  1.0041E-10  1.0041E-10  2.2865E-04  1.1442E-04  1.0049E-10  1.1424E-04  1.0043E-10  7.9310E-06  1.3313E-03                                                                                                                                                                                                                                                                                                                                                                                                                                                                                                                                                                                                            
     875.0000     125.0000   -4975.0000  5.22080E+02   94.296  0.00000E+00  1.00000E+00  1.00000  8.2362  1.0073E-10  1.0073E-10  2.3092E-04  1.1884E-04  1.0085E-10  1.1208E-04  1.0076E-10  5.6109E-06  1.0741E-03                                                                                                                                                                                                                                                                                                                                                                                                                                                                                                                                                                                                            
    1050.0000     125.0000   -4975.0000  5.22519E+02   83.815  0.00000E+00  1.00000E+00  1.00000  8.4336  1.0088E-10  1.0088E-10  2.4786E-04  1.9399E-04  1.0088E-10  5.3850E-05  1.0088E-10  4.4977E-06  9.1111E-04                                                                                                                                                                                                                                                                                                                                                                                                                                                                                                                                                                                                            
    1225.0000     125.0000   -4975.0000  5.22080E+02   94.296  0.00000E+00  1.00000E+00  1.00000  8.2362  1.0073E-10  1.0073E-10  2.3092E-04  1.1884E-04  1.0085E-10  1.1208E-04  1.0076E-10  5.6109E-06  1.0741E-03                                                                                                                                                                                                                                                                                                                                                                                                                                                                                                                                                                                                            
    1475.0000     125.0000   -4975.0000  5.21340E+02  107.492  0.00000E+00  1.00000E+00  1.00000  8.0435  1.0041E-10  1.0041E-10  2.2865E-04  1.1442E-04  1.0049E-10  1.1424E-04  1.0043E-10  7.9311E-06  1.3313E-03                                                                                                                                                                                                                                                                                                                                                                                                                                                                                                                                                                                                            
    1725.0000     125.0000   -4975.0000  5.20860E+02  116.949  0.00000E+00  1.00000E+00  1.00000  7.9167  1.0025E-10  1.0025E-10  2.2593E-04  1.1300E-04  1.0029E-10  1.1292E-04  1.0025E-10  1.0026E-05  1.5447E-03                                                                                                                                                                                                                                                                                                                                                                                                                                                                                                                                                                                                            
    1975.0000     125.0000   -4975.0000  5.20632E+02  121.809  0.00000E+00  1.00000E+00  1.00000  7.8552  1.0018E-10  1.0019E-10  2.2416E-04  1.1212E-04  1.0022E-10  1.1203E-04  1.0018E-10  1.1266E-05  1.6646E-03                                                                                                                                                                                                                                                                                                                                                                                                                                                                                                                                                                                                            
     125.0000     125.0000   -4725.0000  4.97488E+02  110.043  0.00000E+00  1.00000E+00  1.00000  8.0084  1.0046E-10  1.0046E-10  2.2805E-04  1.1668E-04  1.0052E-10  1.1136E-04  1.0047E-10  8.4586E-06  1.3864E-03                                                                                                                                                                                                                                                                                                                                                                                                                                                                                                                                                                                                            
     375.0000     125.0000   -4725.0000  4.97587E+02  106.324  0.00000E+00  1.00000E+00  1.00000  8.0598  1.0050E-10  1.0050E-10  2.2898E-04  1.1713E-04  1.0057E-10  1.1184E-04  1.0051E-10  7.6990E-06  1.3067E-03                                                                                                                                                                                                                                                                                                                                                                                                                                                                                                                                                                                                            
     625.0000     125.0000   -4725.0000  4.97790E+02   99.681  0.00000E+00  1.00000E+00  1.00000  8.1552  1.0061E-10  1.0061E-10  2.3024E-04  1.1749E-04  1.0070E-10  1.1276E-04  1.0063E-10  6.4799E-06  1.1736E-03                                                                                                                                                                                                                                                                                                                                                                                                                                                                                                                                                                                                            
     875.0000     125.0000   -4725.0000  4.98088E+02   90.853  0.00000E+00  1.00000E+00  1.00000  8.2895  1.0083E-10  1.0083E-10  2.3118E-04  1.1866E-04  1.0095E-10  1.1253E-04  1.0086E-10  5.1048E-06  1.0142E-03                                                                                                                                                                                                                                                                                                                                                                                                                                                                                                                                                                                                            
    1050.0000     125.0000   -4725.0000  4.98249E+02   84.020  0.00000E+00  1.00000E+00  1.00000  8.4303  1.0090E-10  1.0090E-10  2.4792E-04  1.9414E-04  1.0090E-10  5.3766E-05  1.0090E-10  4.5251E-06  9.1429E-04                                                                                                                                                                                                                                                                                                                                                                                                                                                                                                                                                                                                            
    1225.0000     125.0000   -4725.0000  4.98088E+02   90.853  0.00000E+00  1.00000E+00  1.00000  8.2895  1.0083E-10  1.0083E-10  2.3118E-04  1.1866E-04  1.0095E-10  1.1253E-04  1.0086E-10  5.1048E-06  1.0142E-03                                                                                                                                                                                                                                                                                                                                                                                                                                                                                                                                                                                                            
    1475.0000     125.0000   -4725.0000  4.97790E+02   99.681  0.00000E+00  1.00000E+00  1.00000  8.1552  1.0061E-10  1.0061E-10  2.3024E-04  1.1749E-04  1.0070E-10  1.1276E-04  1.0063E-10  6.4799E-06  1.1736E-03                                                                                                                                                                                                                                                                                                                                                                                                                                                                                                                                                                                                            
    1725.0000     125.0000   -4725.0000  4.97587E+02  106.324  0.00000E+00  1.00000E+00  1.00000  8.0598  1.0050E-10  1.0050E-10  2.2898E-04  1.1713E-04  1.0057E-10  1.1184E-04  1.0051E-10  7.6990E-06  1.3067E-03                                                                                                                                                                                                                                                                                                                                                                                                                                                                                                                                                                                                            