Title="TOUGHREACT V3.30-OMP: Aqueous Total & Species Concentrations in mol/kg h2o, Surface & Exchanged Species in mol/kg h2o, Dry blocks in mol/L medium"                                                                                                                                                                                                                                                                                                                                                                                                                                                                                                                                                                                                                                                                       
Variables= "X(m)"   "Y(m)"   "Z(m)"   "P(bar)"     "T(C)"   "SatGas"   "SatLiq"     "aH2O"       "pH"        "t_na+"        "t_cl-"      "t_hco3-"       "t_ca+2"      "t_so4-2"       "t_mg+2"       "t_ba+2"       "t_al+3"     "t_h4sio4"                                                                                                                                                                                                                                                                                                                                                                                                                                                                                                                                                                                    
Zone T= "3.16887907E-01 yr" I=      9J=     10K=     23F=Point 
     125.0000     125.0000   -5425.0000  5.92251E+02  158.123  0.00000E+00  1.00000E+00  1.00000  7.4752  1.0001E-10  1.0001E-10  2.0586E-04  1.0293E-04  1.0001E-10  1.0293E-04  1.0001E-10  2.5315E-05  2.8021E-03                                                                                                                                                                                                                                                                                                                                                                                                                                                                                                                                                                                                            
     375.0000     125.0000   -5425.0000  5.92251E+02  158.123  0.00000E+00  1.00000E+00  1.00000  7.4752  1.0001E-10  1.0001E-10  2.0586E-04  1.0293E-04  1.0001E-10  1.0293E-04  1.0001E-10  2.5315E-05  2.8021E-03                                                                                                                                                                                                                                                                                                                                                                                                                                                                                                                                                                                                            
     625.0000     125.0000   -5425.0000  5.92247E+02  158.123  0.00000E+00  1.00000E+00  1.00000  7.4752  1.0001E-10  1.0001E-10  2.0586E-04  1.0293E-04  1.0001E-10  1.0293E-04  1.0001E-10  2.5315E-05  2.8021E-03                                                                                                                                                                                                                                                                                                                                                                                                                                                                                                                                                                                                            
     875.0000     125.0000   -5425.0000  5.91835E+02  158.121  0.00000E+00  1.00000E+00  1.00000  7.4753  1.0001E-10  1.0001E-10  2.0586E-04  1.0293E-04  1.0001E-10  1.0293E-04  1.0001E-10  2.5314E-05  2.8020E-03                                                                                                                                                                                                                                                                                                                                                                                                                                                                                                                                                                                                            
    1050.0000     125.0000   -5425.0000  5.75821E+02  158.028  0.00000E+00  1.00000E+00  1.00000  7.4761  1.0001E-10  1.0001E-10  2.0591E-04  1.0296E-04  1.0001E-10  1.0296E-04  1.0001E-10  2.5264E-05  2.7985E-03                                                                                                                                                                                                                                                                                                                                                                                                                                                                                                                                                                                                            
    1225.0000     125.0000   -5425.0000  5.91835E+02  158.121  0.00000E+00  1.00000E+00  1.00000  7.4753  1.0001E-10  1.0001E-10  2.0586E-04  1.0293E-04  1.0001E-10  1.0293E-04  1.0001E-10  2.5314E-05  2.8020E-03                                                                                                                                                                                                                                                                                                                                                                                                                                                                                                                                                                                                            
    1475.0000     125.0000   -5425.0000  5.92247E+02  158.123  0.00000E+00  1.00000E+00  1.00000  7.4752  1.0001E-10  1.0001E-10  2.0586E-04  1.0293E-04  1.0001E-10  1.0293E-04  1.0001E-10  2.5315E-05  2.8021E-03                                                                                                                                                                                                                                                                                                                                                                                                                                                                                                                                                                                                            
    1725.0000     125.0000   -5425.0000  5.92251E+02  158.123  0.00000E+00  1.00000E+00  1.00000  7.4752  1.0001E-10  1.0001E-10  2.0586E-04  1.0293E-04  1.0001E-10  1.0293E-04  1.0001E-10  2.5315E-05  2.8021E-03                                                                                                                                                                                                                                                                                                                                                                                                                                                                                                                                                                                                            
    1975.0000     125.0000   -5425.0000  5.92251E+02  158.123  0.00000E+00  1.00000E+00  1.00000  7.4752  1.0001E-10  1.0001E-10  2.0586E-04  1.0293E-04  1.0001E-10  1.0293E-04  1.0001E-10  2.5315E-05  2.8021E-03                                                                                                                                                                                                                                                                                                                                                                                                                                                                                                                                                                                                            
     125.0000     125.0000   -5225.0000  5.72220E+02  153.126  0.00000E+00  1.00000E+00  1.00000  7.5192  1.0001E-10  1.0001E-10  2.0863E-04  1.0432E-04  1.0001E-10  1.0432E-04  1.0001E-10  2.2763E-05  2.6186E-03                                                                                                                                                                                                                                                                                                                                                                                                                                                                                                                                                                                                            
     375.0000     125.0000   -5225.0000  5.72220E+02  153.126  0.00000E+00  1.00000E+00  1.00000  7.5192  1.0001E-10  1.0001E-10  2.0863E-04  1.0432E-04  1.0001E-10  1.0432E-04  1.0001E-10  2.2763E-05  2.6186E-03                                                                                                                                                                                                                                                                                                                                                                                                                                                                                                                                                                                                            
     625.0000     125.0000   -5225.0000  5.72217E+02  153.126  0.00000E+00  1.00000E+00  1.00000  7.5192  1.0001E-10  1.0001E-10  2.0863E-04  1.0432E-04  1.0001E-10  1.0432E-04  1.0001E-10  2.2763E-05  2.6186E-03                                                                                                                                                                                                                                                                                                                                                                                                                                                                                                                                                                                                            
     875.0000     125.0000   -5225.0000  5.71854E+02  153.125  0.00000E+00  1.00000E+00  1.00000  7.5192  1.0001E-10  1.0001E-10  2.0864E-04  1.0432E-04  1.0001E-10  1.0432E-04  1.0001E-10  2.2762E-05  2.6186E-03                                                                                                                                                                                                                                                                                                                                                                                                                                                                                                                                                                                                            
    1050.0000     125.0000   -5225.0000  5.57367E+02  153.051  0.00000E+00  1.00000E+00  1.00000  7.5198  1.0001E-10  1.0001E-10  2.0868E-04  1.0434E-04  1.0001E-10  1.0434E-04  1.0001E-10  2.2726E-05  2.6159E-03                                                                                                                                                                                                                                                                                                                                                                                                                                                                                                                                                                                                            
    1225.0000     125.0000   -5225.0000  5.71854E+02  153.125  0.00000E+00  1.00000E+00  1.00000  7.5192  1.0001E-10  1.0001E-10  2.0864E-04  1.0432E-04  1.0001E-10  1.0432E-04  1.0001E-10  2.2762E-05  2.6186E-03                                                                                                                                                                                                                                                                                                                                                                                                                                                                                                                                                                                                            
    1475.0000     125.0000   -5225.0000  5.72217E+02  153.126  0.00000E+00  1.00000E+00  1.00000  7.5192  1.0001E-10  1.0001E-10  2.0863E-04  1.0432E-04  1.0001E-10  1.0432E-04  1.0001E-10  2.2763E-05  2.6186E-03                                                                                                                                                                                                                                                                                                                                                                                                                                                                                                                                                                                                            
    1725.0000     125.0000   -5225.0000  5.72220E+02  153.126  0.00000E+00  1.00000E+00  1.00000  7.5192  1.0001E-10  1.0001E-10  2.0863E-04  1.0432E-04  1.0001E-10  1.0432E-04  1.0001E-10  2.2763E-05  2.6186E-03                                                                                                                                                                                                                                                                                                                                                                                                                                                                                                                                                                                                            
    1975.0000     125.0000   -5225.0000  5.72220E+02  153.126  0.00000E+00  1.00000E+00  1.00000  7.5192  1.0001E-10  1.0001E-10  2.0863E-04  1.0432E-04  1.0001E-10  1.0432E-04  1.0001E-10  2.2763E-05  2.6186E-03                                                                                                                                                                                                                                                                                                                                                                                                                                                                                                                                                                                                            
     125.0000     125.0000   -4975.0000  5.47116E+02  146.876  0.00000E+00  1.00000E+00  1.00000  7.5779  1.0001E-10  1.0001E-10  2.1207E-04  1.0604E-04  1.0001E-10  1.0604E-04  1.0001E-10  1.9894E-05  2.4017E-03                                                                                                                                                                                                                                                                                                                                                                                                                                                                                                                                                                                                            
     375.0000     125.0000   -4975.0000  5.47116E+02  146.876  0.00000E+00  1.00000E+00  1.00000  7.5779  1.0001E-10  1.0001E-10  2.1207E-04  1.0604E-04  1.0001E-10  1.0604E-04  1.0001E-10  1.9894E-05  2.4017E-03                                                                                                                                                                                                                                                                                                                                                                                                                                                                                                                                                                                                            
     625.0000     125.0000   -4975.0000  5.47114E+02  146.876  0.00000E+00  1.00000E+00  1.00000  7.5779  1.0001E-10  1.0001E-10  2.1207E-04  1.0604E-04  1.0001E-10  1.0604E-04  1.0001E-10  1.9894E-05  2.4017E-03                                                                                                                                                                                                                                                                                                                                                                                                                                                                                                                                                                                                            
     875.0000     125.0000   -4975.0000  5.46809E+02  146.875  0.00000E+00  1.00000E+00  1.00000  7.5780  1.0001E-10  1.0001E-10  2.1208E-04  1.0604E-04  1.0001E-10  1.0604E-04  1.0001E-10  1.9893E-05  2.4017E-03                                                                                                                                                                                                                                                                                                                                                                                                                                                                                                                                                                                                            
    1050.0000     125.0000   -4975.0000  5.34210E+02  146.832  0.00000E+00  1.00000E+00  1.00000  7.5784  1.0001E-10  1.0001E-10  2.1210E-04  1.0605E-04  1.0001E-10  1.0605E-04  1.0001E-10  1.9875E-05  2.4003E-03                                                                                                                                                                                                                                                                                                                                                                                                                                                                                                                                                                                                            
    1225.0000     125.0000   -4975.0000  5.46809E+02  146.875  0.00000E+00  1.00000E+00  1.00000  7.5780  1.0001E-10  1.0001E-10  2.1208E-04  1.0604E-04  1.0001E-10  1.0604E-04  1.0001E-10  1.9893E-05  2.4017E-03                                                                                                                                                                                                                                                                                                                                                                                                                                                                                                                                                                                                            
    1475.0000     125.0000   -4975.0000  5.47114E+02  146.876  0.00000E+00  1.00000E+00  1.00000  7.5779  1.0001E-10  1.0001E-10  2.1207E-04  1.0604E-04  1.0001E-10  1.0604E-04  1.0001E-10  1.9894E-05  2.4017E-03                                                                                                                                                                                                                                                                                                                                                                                                                                                                                                                                                                                                            
    1725.0000     125.0000   -4975.0000  5.47116E+02  146.876  0.00000E+00  1.00000E+00  1.00000  7.5779  1.0001E-10  1.0001E-10  2.1207E-04  1.0604E-04  1.0001E-10  1.0604E-04  1.0001E-10  1.9894E-05  2.4017E-03                                                                                                                                                                                                                                                                                                                                                                                                                                                                                                                                                                                                            
    1975.0000     125.0000   -4975.0000  5.47116E+02  146.876  0.00000E+00  1.00000E+00  1.00000  7.5779  1.0001E-10  1.0001E-10  2.1207E-04  1.0604E-04  1.0001E-10  1.0604E-04  1.0001E-10  1.9894E-05  2.4017E-03                                                                                                                                                                                                                                                                                                                                                                                                                                                                                                                                                                                                            
     125.0000     125.0000   -4725.0000  5.21791E+02  140.625  0.00000E+00  1.00000E+00  1.00000  7.6410  1.0001E-10  1.0001E-10  2.1539E-04  1.0770E-04  1.0001E-10  1.0770E-04  1.0001E-10  1.7348E-05  2.1985E-03                                                                                                                                                                                                                                                                                                                                                                                                                                                                                                                                                                                                            
     375.0000     125.0000   -4725.0000  5.21790E+02  140.625  0.00000E+00  1.00000E+00  1.00000  7.6410  1.0001E-10  1.0001E-10  2.1539E-04  1.0770E-04  1.0001E-10  1.0770E-04  1.0001E-10  1.7348E-05  2.1985E-03                                                                                                                                                                                                                                                                                                                                                                                                                                                                                                                                                                                                            
     625.0000     125.0000   -4725.0000  5.21786E+02  140.625  0.00000E+00  1.00000E+00  1.00000  7.6410  1.0001E-10  1.0001E-10  2.1539E-04  1.0770E-04  1.0001E-10  1.0770E-04  1.0001E-10  1.7348E-05  2.1985E-03                                                                                                                                                                                                                                                                                                                                                                                                                                                                                                                                                                                                            
     875.0000     125.0000   -4725.0000  5.21538E+02  140.624  0.00000E+00  1.00000E+00  1.00000  7.6410  1.0001E-10  1.0001E-10  2.1539E-04  1.0770E-04  1.0001E-10  1.0770E-04  1.0001E-10  1.7348E-05  2.1984E-03                                                                                                                                                                                                                                                                                                                                                                                                                                                                                                                                                                                                            
    1050.0000     125.0000   -4725.0000  5.10955E+02  140.608  0.00000E+00  1.00000E+00  1.00000  7.6412  1.0001E-10  1.0001E-10  2.1540E-04  1.0770E-04  1.0001E-10  1.0770E-04  1.0001E-10  1.7342E-05  2.1979E-03                                                                                                                                                                                                                                                                                                                                                                                                                                                                                                                                                                                                            
    1225.0000     125.0000   -4725.0000  5.21538E+02  140.624  0.00000E+00  1.00000E+00  1.00000  7.6410  1.0001E-10  1.0001E-10  2.1539E-04  1.0770E-04  1.0001E-10  1.0770E-04  1.0001E-10  1.7348E-05  2.1984E-03                                                                                                                                                                                                                                                                                                                                                                                                                                                                                                                                                                                                            
    1475.0000     125.0000   -4725.0000  5.21786E+02  140.625  0.00000E+00  1.00000E+00  1.00000  7.6410  1.0001E-10  1.0001E-10  2.1539E-04  1.0770E-04  1.0001E-10  1.0770E-04  1.0001E-10  1.7348E-05  2.1985E-03                                                                                                                                                                                                                                                                                                                                                                                                                                                                                                                                                                                                            
    1725.0000     125.0000   -4725.0000  5.21790E+02  140.625  0.00000E+00  1.00000E+00  1.00000  7.6410  1.0001E-10  1.0001E-10  2.1539E-04  1.0770E-04  1.0001E-10  1.0770E-04  1.0001E-10  1.7348E-05  2.1985E-03                                                                                                                                                                                                                                                                                                                                                                                                                                                                                                                                                                                                            