Title="TOUGHREACT V3.30-OMP flowdata.tec: P,T,SAT & Other Variables"
Variables= "X(m)"     "Y(m)"      "Z(m)"       "P(Pa)"        "T(C)"      "SatGas"      "SatLiq"          "X1"          "X2"    "Pcap(Pa)"  "DGas_kg/m3"  "DLiq_kg/m3"    "Porosity"  "Perm_X(m2)"  "Perm_Y(m2)"  "Perm_Z(m2)"    "Krel_Gas"    "Krel_Liq"
Zone T= "5.00000000E-02 sec" I=     5 J=     5 K=    10 F=Point
  5.000000E-01  5.000000E-01 -9.500000E+00  6.346300E+05  8.950000E+01  0.000000E+00  1.000000E+00  1.000000E+00  0.000000E+00  0.000000E+00  4.160223E-01  9.657143E+02  9.999989E-02  1.100000E-12  1.100000E-12  1.100000E-12  0.000000E+00  1.000000E+00
  1.500000E+00  5.000000E-01 -9.500000E+00  6.342948E+05  8.949999E+01  0.000000E+00  1.000000E+00  1.000000E+00  0.000000E+00  0.000000E+00  4.160222E-01  9.657141E+02  9.999978E-02  1.100000E-12  1.100000E-12  1.100000E-12  0.000000E+00  1.000000E+00
  2.500000E+00  5.000000E-01 -9.500000E+00  6.335619E+05  8.949996E+01  0.000000E+00  1.000000E+00  1.000000E+00  0.000000E+00  0.000000E+00  4.160218E-01  9.657138E+02  2.999986E-01  1.100000E-10  1.100000E-10  1.100000E-10  0.000000E+00  1.000000E+00
  3.500000E+00  5.000000E-01 -9.500000E+00  6.342948E+05  8.949999E+01  0.000000E+00  1.000000E+00  1.000000E+00  0.000000E+00  0.000000E+00  4.160222E-01  9.657141E+02  9.999978E-02  1.100000E-12  1.100000E-12  1.100000E-12  0.000000E+00  1.000000E+00
  4.500000E+00  5.000000E-01 -9.500000E+00  6.346300E+05  8.950000E+01  0.000000E+00  1.000000E+00  1.000000E+00  0.000000E+00  0.000000E+00  4.160223E-01  9.657143E+02  9.999989E-02  1.100000E-12  1.100000E-12  1.100000E-12  0.000000E+00  1.000000E+00
  5.000000E-01  5.000000E-01 -8.500000E+00  6.247699E+05  8.850000E+01  0.000000E+00  1.000000E+00  1.000000E+00  0.000000E+00  0.000000E+00  4.013994E-01  9.663816E+02  9.999995E-02  1.100000E-12  1.100000E-12  1.100000E-12  0.000000E+00  1.000000E+00
  1.500000E+00  5.000000E-01 -8.500000E+00  6.245139E+05  8.850000E+01  0.000000E+00  1.000000E+00  1.000000E+00  0.000000E+00  0.000000E+00  4.013993E-01  9.663815E+02  9.999987E-02  1.100000E-12  1.100000E-12  1.100000E-12  0.000000E+00  1.000000E+00
  2.500000E+00  5.000000E-01 -8.500000E+00  6.239769E+05  8.849998E+01  0.000000E+00  1.000000E+00  1.000000E+00  0.000000E+00  0.000000E+00  4.013991E-01  9.663813E+02  2.999991E-01  1.100000E-10  1.100000E-10  1.100000E-10  0.000000E+00  1.000000E+00
  3.500000E+00  5.000000E-01 -8.500000E+00  6.245139E+05  8.850000E+01  0.000000E+00  1.000000E+00  1.000000E+00  0.000000E+00  0.000000E+00  4.013993E-01  9.663815E+02  9.999987E-02  1.100000E-12  1.100000E-12  1.100000E-12  0.000000E+00  1.000000E+00
  4.500000E+00  5.000000E-01 -8.500000E+00  6.247699E+05  8.850000E+01  0.000000E+00  1.000000E+00  1.000000E+00  0.000000E+00  0.000000E+00  4.013994E-01  9.663816E+02  9.999995E-02  1.100000E-12  1.100000E-12  1.100000E-12  0.000000E+00  1.000000E+00
  5.000000E-01  5.000000E-01 -7.500000E+00  6.148107E+05  8.750000E+01  0.000000E+00  1.000000E+00  1.000000E+00  0.000000E+00  0.000000E+00  3.872015E-01  9.670442E+02  9.999998E-02  1.100000E-12  1.100000E-12  1.100000E-12  0.000000E+00  1.000000E+00
  1.500000E+00  5.000000E-01 -7.500000E+00  6.146435E+05  8.750000E+01  0.000000E+00  1.000000E+00  1.000000E+00  0.000000E+00  0.000000E+00  3.872015E-01  9.670442E+02  9.999992E-02  1.100000E-12  1.100000E-12  1.100000E-12  0.000000E+00  1.000000E+00
  2.500000E+00  5.000000E-01 -7.500000E+00  6.143023E+05  8.749999E+01  0.000000E+00  1.000000E+00  1.000000E+00  0.000000E+00  0.000000E+00  3.872014E-01  9.670440E+02  2.999994E-01  1.100000E-10  1.100000E-10  1.100000E-10  0.000000E+00  1.000000E+00
  3.500000E+00  5.000000E-01 -7.500000E+00  6.146435E+05  8.750000E+01  0.000000E+00  1.000000E+00  1.000000E+00  0.000000E+00  0.000000E+00  3.872015E-01  9.670442E+02  9.999992E-02  1.100000E-12  1.100000E-12  1.100000E-12  0.000000E+00  1.000000E+00
  4.500000E+00  5.000000E-01 -7.500000E+00  6.148107E+05  8.750000E+01  0.000000E+00  1.000000E+00  1.000000E+00  0.000000E+00  0.000000E+00  3.872015E-01  9.670442E+02  9.999998E-02  1.100000E-12  1.100000E-12  1.100000E-12  0.000000E+00  1.000000E+00
  5.000000E-01  5.000000E-01 -6.500000E+00  6.048424E+05  8.650000E+01  0.000000E+00  1.000000E+00  1.000000E+00  0.000000E+00  0.000000E+00  3.734193E-01  9.677021E+02  1.000000E-01  1.100000E-12  1.100000E-12  1.100000E-12  0.000000E+00  1.000000E+00
  1.500000E+00  5.000000E-01 -6.500000E+00  6.047482E+05  8.650000E+01  0.000000E+00  1.000000E+00  1.000000E+00  0.000000E+00  0.000000E+00  3.734193E-01  9.677021E+02  9.999997E-02  1.100000E-12  1.100000E-12  1.100000E-12  0.000000E+00  1.000000E+00
  2.500000E+00  5.000000E-01 -6.500000E+00  6.045680E+05  8.650000E+01  0.000000E+00  1.000000E+00  1.000000E+00  0.000000E+00  0.000000E+00  3.734193E-01  9.677020E+02  2.999997E-01  1.100000E-10  1.100000E-10  1.100000E-10  0.000000E+00  1.000000E+00
  3.500000E+00  5.000000E-01 -6.500000E+00  6.047482E+05  8.650000E+01  0.000000E+00  1.000000E+00  1.000000E+00  0.000000E+00  0.000000E+00  3.734193E-01  9.677021E+02  9.999997E-02  1.100000E-12  1.100000E-12  1.100000E-12  0.000000E+00  1.000000E+00
  4.500000E+00  5.000000E-01 -6.500000E+00  6.048424E+05  8.650000E+01  0.000000E+00  1.000000E+00  1.000000E+00  0.000000E+00  0.000000E+00  3.734193E-01  9.677021E+02  1.000000E-01  1.100000E-12  1.100000E-12  1.100000E-12  0.000000E+00  1.000000E+00
  5.000000E-01  5.000000E-01 -5.500000E+00  5.949562E+05  8.550000E+01  0.000000E+00  1.000000E+00  1.000000E+00  0.000000E+00  0.000000E+00  3.600434E-01  9.683553E+02  1.000001E-01  1.100000E-12  1.100000E-12  1.100000E-12  0.000000E+00  1.000000E+00
  1.500000E+00  5.000000E-01 -5.500000E+00  5.948997E+05  8.550000E+01  0.000000E+00  1.000000E+00  1.000000E+00  0.000000E+00  0.000000E+00  3.600434E-01  9.683553E+02  1.000000E-01  1.100000E-12  1.100000E-12  1.100000E-12  0.000000E+00  1.000000E+00
  2.500000E+00  5.000000E-01 -5.500000E+00  5.947995E+05  8.550001E+01  0.000000E+00  1.000000E+00  1.000000E+00  0.000000E+00  0.000000E+00  3.600435E-01  9.683552E+02  3.000000E-01  1.100000E-10  1.100000E-10  1.100000E-10  0.000000E+00  1.000000E+00
  3.500000E+00  5.000000E-01 -5.500000E+00  5.948997E+05  8.550000E+01  0.000000E+00  1.000000E+00  1.000000E+00  0.000000E+00  0.000000E+00  3.600434E-01  9.683553E+02  1.000000E-01  1.100000E-12  1.100000E-12  1.100000E-12  0.000000E+00  1.000000E+00
  4.500000E+00  5.000000E-01 -5.500000E+00  5.949562E+05  8.550000E+01  0.000000E+00  1.000000E+00  1.000000E+00  0.000000E+00  0.000000E+00  3.600434E-01  9.683553E+02  1.000001E-01  1.100000E-12  1.100000E-12  1.100000E-12  0.000000E+00  1.000000E+00
  5.000000E-01  5.000000E-01 -4.500000E+00  5.847525E+05  8.450000E+01  0.000000E+00  1.000000E+00  1.000000E+00  0.000000E+00  0.000000E+00  3.470646E-01  9.690035E+02  1.000000E-01  1.100000E-17  1.100000E-17  1.100000E-17  0.000000E+00  1.000000E+00
  1.500000E+00  5.000000E-01 -4.500000E+00  5.847525E+05  8.450000E+01  0.000000E+00  1.000000E+00  1.000000E+00  0.000000E+00  0.000000E+00  3.470646E-01  9.690035E+02  1.000000E-01  1.100000E-17  1.100000E-17  1.100000E-17  0.000000E+00  1.000000E+00
  2.500000E+00  5.000000E-01 -4.500000E+00  5.850174E+05  8.450001E+01  0.000000E+00  1.000000E+00  1.000000E+00  0.000000E+00  0.000000E+00  3.470648E-01  9.690037E+02  3.000003E-01  1.100000E-10  1.100000E-10  1.100000E-10  0.000000E+00  1.000000E+00
  3.500000E+00  5.000000E-01 -4.500000E+00  5.847525E+05  8.450000E+01  0.000000E+00  1.000000E+00  1.000000E+00  0.000000E+00  0.000000E+00  3.470646E-01  9.690035E+02  1.000000E-01  1.100000E-17  1.100000E-17  1.100000E-17  0.000000E+00  1.000000E+00
  4.500000E+00  5.000000E-01 -4.500000E+00  5.847525E+05  8.450000E+01  0.000000E+00  1.000000E+00  1.000000E+00  0.000000E+00  0.000000E+00  3.470646E-01  9.690035E+02  1.000000E-01  1.100000E-17  1.100000E-17  1.100000E-17  0.000000E+00  1.000000E+00
  5.000000E-01  5.000000E-01 -3.500000E+00  5.747075E+05  8.350000E+01  0.000000E+00  1.000000E+00  1.000000E+00  0.000000E+00  0.000000E+00  3.344738E-01  9.696470E+02  1.000000E-01  1.100000E-17  1.100000E-17  1.100000E-17  0.000000E+00  1.000000E+00
  1.500000E+00  5.000000E-01 -3.500000E+00  5.747075E+05  8.350000E+01  0.000000E+00  1.000000E+00  1.000000E+00  0.000000E+00  0.000000E+00  3.344738E-01  9.696470E+02  1.000000E-01  1.100000E-17  1.100000E-17  1.100000E-17  0.000000E+00  1.000000E+00
  2.500000E+00  5.000000E-01 -3.500000E+00  5.752433E+05  8.350002E+01  0.000000E+00  1.000000E+00  1.000000E+00  0.000000E+00  0.000000E+00  3.344740E-01  9.696473E+02  3.000005E-01  1.100000E-10  1.100000E-10  1.100000E-10  0.000000E+00  1.000000E+00
  3.500000E+00  5.000000E-01 -3.500000E+00  5.747075E+05  8.350000E+01  0.000000E+00  1.000000E+00  1.000000E+00  0.000000E+00  0.000000E+00  3.344738E-01  9.696470E+02  1.000000E-01  1.100000E-17  1.100000E-17  1.100000E-17  0.000000E+00  1.000000E+00
  4.500000E+00  5.000000E-01 -3.500000E+00  5.747075E+05  8.350000E+01  0.000000E+00  1.000000E+00  1.000000E+00  0.000000E+00  0.000000E+00  3.344738E-01  9.696470E+02  1.000000E-01  1.100000E-17  1.100000E-17  1.100000E-17  0.000000E+00  1.000000E+00
  5.000000E-01  5.000000E-01 -2.500000E+00  5.646625E+05  8.250000E+01  0.000000E+00  1.000000E+00  1.000000E+00  0.000000E+00  0.000000E+00  3.222620E-01  9.702857E+02  1.000000E-01  1.100000E-17  1.100000E-17  1.100000E-17  0.000000E+00  1.000000E+00
  1.500000E+00  5.000000E-01 -2.500000E+00  5.646625E+05  8.250000E+01  0.000000E+00  1.000000E+00  1.000000E+00  0.000000E+00  0.000000E+00  3.222620E-01  9.702857E+02  1.000000E-01  1.100000E-17  1.100000E-17  1.100000E-17  0.000000E+00  1.000000E+00
  2.500000E+00  5.000000E-01 -2.500000E+00  5.654955E+05  8.250003E+01  0.000000E+00  1.000000E+00  1.000000E+00  0.000000E+00  0.000000E+00  3.222623E-01  9.702860E+02  3.000008E-01  1.100000E-10  1.100000E-10  1.100000E-10  0.000000E+00  1.000000E+00
  3.500000E+00  5.000000E-01 -2.500000E+00  5.646625E+05  8.250000E+01  0.000000E+00  1.000000E+00  1.000000E+00  0.000000E+00  0.000000E+00  3.222620E-01  9.702857E+02  1.000000E-01  1.100000E-17  1.100000E-17  1.100000E-17  0.000000E+00  1.000000E+00
  4.500000E+00  5.000000E-01 -2.500000E+00  5.646625E+05  8.250000E+01  0.000000E+00  1.000000E+00  1.000000E+00  0.000000E+00  0.000000E+00  3.222620E-01  9.702857E+02  1.000000E-01  1.100000E-17  1.100000E-17  1.100000E-17  0.000000E+00  1.000000E+00
  5.000000E-01  5.000000E-01 -1.500000E+00  5.546175E+05  8.150000E+01  0.000000E+00  1.000000E+00  1.000000E+00  0.000000E+00  0.000000E+00  3.104206E-01  9.709194E+02  1.000000E-01  1.100000E-17  1.100000E-17  1.100000E-17  0.000000E+00  1.000000E+00
  1.500000E+00  5.000000E-01 -1.500000E+00  5.546175E+05  8.150000E+01  0.000000E+00  1.000000E+00  1.000000E+00  0.000000E+00  0.000000E+00  3.104206E-01  9.709194E+02  1.000000E-01  1.100000E-17  1.100000E-17  1.100000E-17  0.000000E+00  1.000000E+00
  2.500000E+00  5.000000E-01 -1.500000E+00  5.557953E+05  8.150003E+01  0.000000E+00  1.000000E+00  1.000000E+00  0.000000E+00  0.000000E+00  3.104210E-01  9.709199E+02  3.000011E-01  1.100000E-10  1.100000E-10  1.100000E-10  0.000000E+00  1.000000E+00
  3.500000E+00  5.000000E-01 -1.500000E+00  5.546175E+05  8.150000E+01  0.000000E+00  1.000000E+00  1.000000E+00  0.000000E+00  0.000000E+00  3.104206E-01  9.709194E+02  1.000000E-01  1.100000E-17  1.100000E-17  1.100000E-17  0.000000E+00  1.000000E+00
  4.500000E+00  5.000000E-01 -1.500000E+00  5.546175E+05  8.150000E+01  0.000000E+00  1.000000E+00  1.000000E+00  0.000000E+00  0.000000E+00  3.104206E-01  9.709194E+02  1.000000E-01  1.100000E-17  1.100000E-17  1.100000E-17  0.000000E+00  1.000000E+00
  5.000000E-01  5.000000E-01 -5.000000E-01  5.445725E+05  8.050000E+01  0.000000E+00  1.000000E+00  1.000000E+00  0.000000E+00  0.000000E+00  2.989407E-01  9.715482E+02  1.000000E-01  1.100000E-17  1.100000E-17  1.100000E-17  0.000000E+00  1.000000E+00
  1.500000E+00  5.000000E-01 -5.000000E-01  5.445725E+05  8.050000E+01  0.000000E+00  1.000000E+00  1.000000E+00  0.000000E+00  0.000000E+00  2.989407E-01  9.715482E+02  1.000000E-01  1.100000E-17  1.100000E-17  1.100000E-17  0.000000E+00  1.000000E+00
  2.500000E+00  5.000000E-01 -5.000000E-01  5.461675E+05  8.050004E+01  0.000000E+00  1.000000E+00  1.000000E+00  0.000000E+00  0.000000E+00  2.989412E-01  9.715489E+02  3.000015E-01  1.100000E-10  1.100000E-10  1.100000E-10  0.000000E+00  1.000000E+00
  3.500000E+00  5.000000E-01 -5.000000E-01  5.445725E+05  8.050000E+01  0.000000E+00  1.000000E+00  1.000000E+00  0.000000E+00  0.000000E+00  2.989407E-01  9.715482E+02  1.000000E-01  1.100000E-17  1.100000E-17  1.100000E-17  0.000000E+00  1.000000E+00
  4.500000E+00  5.000000E-01 -5.000000E-01  5.445725E+05  8.050000E+01  0.000000E+00  1.000000E+00  1.000000E+00  0.000000E+00  0.000000E+00  2.989407E-01  9.715482E+02  1.000000E-01  1.100000E-17  1.100000E-17  1.100000E-17  0.000000E+00  1.000000E+00
  5.000000E-01  1.500000E+00 -9.500000E+00  6.346300E+05  8.950000E+01  0.000000E+00  1.000000E+00  1.000000E+00  0.000000E+00  0.000000E+00  4.160223E-01  9.657143E+02  9.999989E-02  1.100000E-12  1.100000E-12  1.100000E-12  0.000000E+00  1.000000E+00
  1.500000E+00  1.500000E+00 -9.500000E+00  6.342948E+05  8.949999E+01  0.000000E+00  1.000000E+00  1.000000E+00  0.000000E+00  0.000000E+00  4.160222E-01  9.657141E+02  9.999978E-02  1.100000E-12  1.100000E-12  1.100000E-12  0.000000E+00  1.000000E+00
  2.500000E+00  1.500000E+00 -9.500000E+00  6.335619E+05  8.949996E+01  0.000000E+00  1.000000E+00  1.000000E+00  0.000000E+00  0.000000E+00  4.160218E-01  9.657138E+02  2.999986E-01  1.100000E-10  1.100000E-10  1.100000E-10  0.000000E+00  1.000000E+00
  3.500000E+00  1.500000E+00 -9.500000E+00  6.342948E+05  8.949999E+01  0.000000E+00  1.000000E+00  1.000000E+00  0.000000E+00  0.000000E+00  4.160222E-01  9.657141E+02  9.999978E-02  1.100000E-12  1.100000E-12  1.100000E-12  0.000000E+00  1.000000E+00
  4.500000E+00  1.500000E+00 -9.500000E+00  6.346300E+05  8.950000E+01  0.000000E+00  1.000000E+00  1.000000E+00  0.000000E+00  0.000000E+00  4.160223E-01  9.657143E+02  9.999989E-02  1.100000E-12  1.100000E-12  1.100000E-12  0.000000E+00  1.000000E+00
  5.000000E-01  1.500000E+00 -8.500000E+00  6.247699E+05  8.850000E+01  0.000000E+00  1.000000E+00  1.000000E+00  0.000000E+00  0.000000E+00  4.013994E-01  9.663816E+02  9.999995E-02  1.100000E-12  1.100000E-12  1.100000E-12  0.000000E+00  1.000000E+00
  1.500000E+00  1.500000E+00 -8.500000E+00  6.245139E+05  8.850000E+01  0.000000E+00  1.000000E+00  1.000000E+00  0.000000E+00  0.000000E+00  4.013993E-01  9.663815E+02  9.999987E-02  1.100000E-12  1.100000E-12  1.100000E-12  0.000000E+00  1.000000E+00
  2.500000E+00  1.500000E+00 -8.500000E+00  6.239769E+05  8.849998E+01  0.000000E+00  1.000000E+00  1.000000E+00  0.000000E+00  0.000000E+00  4.013991E-01  9.663813E+02  2.999991E-01  1.100000E-10  1.100000E-10  1.100000E-10  0.000000E+00  1.000000E+00
  3.500000E+00  1.500000E+00 -8.500000E+00  6.245139E+05  8.850000E+01  0.000000E+00  1.000000E+00  1.000000E+00  0.000000E+00  0.000000E+00  4.013993E-01  9.663815E+02  9.999987E-02  1.100000E-12  1.100000E-12  1.100000E-12  0.000000E+00  1.000000E+00
  4.500000E+00  1.500000E+00 -8.500000E+00  6.247699E+05  8.850000E+01  0.000000E+00  1.000000E+00  1.000000E+00  0.000000E+00  0.000000E+00  4.013994E-01  9.663816E+02  9.999995E-02  1.100000E-12  1.100000E-12  1.100000E-12  0.000000E+00  1.000000E+00
  5.000000E-01  1.500000E+00 -7.500000E+00  6.148107E+05  8.750000E+01  0.000000E+00  1.000000E+00  1.000000E+00  0.000000E+00  0.000000E+00  3.872015E-01  9.670442E+02  9.999998E-02  1.100000E-12  1.100000E-12  1.100000E-12  0.000000E+00  1.000000E+00
  1.500000E+00  1.500000E+00 -7.500000E+00  6.146435E+05  8.750000E+01  0.000000E+00  1.000000E+00  1.000000E+00  0.000000E+00  0.000000E+00  3.872015E-01  9.670442E+02  9.999992E-02  1.100000E-12  1.100000E-12  1.100000E-12  0.000000E+00  1.000000E+00
  2.500000E+00  1.500000E+00 -7.500000E+00  6.143023E+05  8.749999E+01  0.000000E+00  1.000000E+00  1.000000E+00  0.000000E+00  0.000000E+00  3.872014E-01  9.670440E+02  2.999994E-01  1.100000E-10  1.100000E-10  1.100000E-10  0.000000E+00  1.000000E+00
  3.500000E+00  1.500000E+00 -7.500000E+00  6.146435E+05  8.750000E+01  0.000000E+00  1.000000E+00  1.000000E+00  0.000000E+00  0.000000E+00  3.872015E-01  9.670442E+02  9.999992E-02  1.100000E-12  1.100000E-12  1.100000E-12  0.000000E+00  1.000000E+00
  4.500000E+00  1.500000E+00 -7.500000E+00  6.148107E+05  8.750000E+01  0.000000E+00  1.000000E+00  1.000000E+00  0.000000E+00  0.000000E+00  3.872015E-01  9.670442E+02  9.999998E-02  1.100000E-12  1.100000E-12  1.100000E-12  0.000000E+00  1.000000E+00
  5.000000E-01  1.500000E+00 -6.500000E+00  6.048424E+05  8.650000E+01  0.000000E+00  1.000000E+00  1.000000E+00  0.000000E+00  0.000000E+00  3.734193E-01  9.677021E+02  1.000000E-01  1.100000E-12  1.100000E-12  1.100000E-12  0.000000E+00  1.000000E+00
  1.500000E+00  1.500000E+00 -6.500000E+00  6.047482E+05  8.650000E+01  0.000000E+00  1.000000E+00  1.000000E+00  0.000000E+00  0.000000E+00  3.734193E-01  9.677021E+02  9.999997E-02  1.100000E-12  1.100000E-12  1.100000E-12  0.000000E+00  1.000000E+00
  2.500000E+00  1.500000E+00 -6.500000E+00  6.045680E+05  8.650000E+01  0.000000E+00  1.000000E+00  1.000000E+00  0.000000E+00  0.000000E+00  3.734193E-01  9.677020E+02  2.999997E-01  1.100000E-10  1.100000E-10  1.100000E-10  0.000000E+00  1.000000E+00
  3.500000E+00  1.500000E+00 -6.500000E+00  6.047482E+05  8.650000E+01  0.000000E+00  1.000000E+00  1.000000E+00  0.000000E+00  0.000000E+00  3.734193E-01  9.677021E+02  9.999997E-02  1.100000E-12  1.100000E-12  1.100000E-12  0.000000E+00  1.000000E+00
  4.500000E+00  1.500000E+00 -6.500000E+00  6.048424E+05  8.650000E+01  0.000000E+00  1.000000E+00  1.000000E+00  0.000000E+00  0.000000E+00  3.734193E-01  9.677021E+02  1.000000E-01  1.100000E-12  1.100000E-12  1.100000E-12  0.000000E+00  1.000000E+00
  5.000000E-01  1.500000E+00 -5.500000E+00  5.949562E+05  8.550000E+01  0.000000E+00  1.000000E+00  1.000000E+00  0.000000E+00  0.000000E+00  3.600434E-01  9.683553E+02  1.000001E-01  1.100000E-12  1.100000E-12  1.100000E-12  0.000000E+00  1.000000E+00
  1.500000E+00  1.500000E+00 -5.500000E+00  5.948997E+05  8.550000E+01  0.000000E+00  1.000000E+00  1.000000E+00  0.000000E+00  0.000000E+00  3.600434E-01  9.683553E+02  1.000000E-01  1.100000E-12  1.100000E-12  1.100000E-12  0.000000E+00  1.000000E+00
  2.500000E+00  1.500000E+00 -5.500000E+00  5.947995E+05  8.550001E+01  0.000000E+00  1.000000E+00  1.000000E+00  0.000000E+00  0.000000E+00  3.600435E-01  9.683552E+02  3.000000E-01  1.100000E-10  1.100000E-10  1.100000E-10  0.000000E+00  1.000000E+00
  3.500000E+00  1.500000E+00 -5.500000E+00  5.948997E+05  8.550000E+01  0.000000E+00  1.000000E+00  1.000000E+00  0.000000E+00  0.000000E+00  3.600434E-01  9.683553E+02  1.000000E-01  1.100000E-12  1.100000E-12  1.100000E-12  0.000000E+00  1.000000E+00
  4.500000E+00  1.500000E+00 -5.500000E+00  5.949562E+05  8.550000E+01  0.000000E+00  1.000000E+00  1.000000E+00  0.000000E+00  0.000000E+00  3.600434E-01  9.683553E+02  1.000001E-01  1.100000E-12  1.100000E-12  1.100000E-12  0.000000E+00  1.000000E+00
  5.000000E-01  1.500000E+00 -4.500000E+00  5.847525E+05  8.450000E+01  0.000000E+00  1.000000E+00  1.000000E+00  0.000000E+00  0.000000E+00  3.470646E-01  9.690035E+02  1.000000E-01  1.100000E-17  1.100000E-17  1.100000E-17  0.000000E+00  1.000000E+00
  1.500000E+00  1.500000E+00 -4.500000E+00  5.847525E+05  8.450000E+01  0.000000E+00  1.000000E+00  1.000000E+00  0.000000E+00  0.000000E+00  3.470646E-01  9.690035E+02  1.000000E-01  1.100000E-17  1.100000E-17  1.100000E-17  0.000000E+00  1.000000E+00
  2.500000E+00  1.500000E+00 -4.500000E+00  5.850174E+05  8.450001E+01  0.000000E+00  1.000000E+00  1.000000E+00  0.000000E+00  0.000000E+00  3.470648E-01  9.690037E+02  3.000003E-01  1.100000E-10  1.100000E-10  1.100000E-10  0.000000E+00  1.000000E+00
  3.500000E+00  1.500000E+00 -4.500000E+00  5.847525E+05  8.450000E+01  0.000000E+00  1.000000E+00  1.000000E+00  0.000000E+00  0.000000E+00  3.470646E-01  9.690035E+02  1.000000E-01  1.100000E-17  1.100000E-17  1.100000E-17  0.000000E+00  1.000000E+00
  4.500000E+00  1.500000E+00 -4.500000E+00  5.847525E+05  8.450000E+01  0.000000E+00  1.000000E+00  1.000000E+00  0.000000E+00  0.000000E+00  3.470646E-01  9.690035E+02  1.000000E-01  1.100000E-17  1.100000E-17  1.100000E-17  0.000000E+00  1.000000E+00
  5.000000E-01  1.500000E+00 -3.500000E+00  5.747075E+05  8.350000E+01  0.000000E+00  1.000000E+00  1.000000E+00  0.000000E+00  0.000000E+00  3.344738E-01  9.696470E+02  1.000000E-01  1.100000E-17  1.100000E-17  1.100000E-17  0.000000E+00  1.000000E+00
  1.500000E+00  1.500000E+00 -3.500000E+00  5.747075E+05  8.350000E+01  0.000000E+00  1.000000E+00  1.000000E+00  0.000000E+00  0.000000E+00  3.344738E-01  9.696470E+02  1.000000E-01  1.100000E-17  1.100000E-17  1.100000E-17  0.000000E+00  1.000000E+00
  2.500000E+00  1.500000E+00 -3.500000E+00  5.752433E+05  8.350002E+01  0.000000E+00  1.000000E+00  1.000000E+00  0.000000E+00  0.000000E+00  3.344740E-01  9.696473E+02  3.000005E-01  1.100000E-10  1.100000E-10  1.100000E-10  0.000000E+00  1.000000E+00
  3.500000E+00  1.500000E+00 -3.500000E+00  5.747075E+05  8.350000E+01  0.000000E+00  1.000000E+00  1.000000E+00  0.000000E+00  0.000000E+00  3.344738E-01  9.696470E+02  1.000000E-01  1.100000E-17  1.100000E-17  1.100000E-17  0.000000E+00  1.000000E+00
  4.500000E+00  1.500000E+00 -3.500000E+00  5.747075E+05  8.350000E+01  0.000000E+00  1.000000E+00  1.000000E+00  0.000000E+00  0.000000E+00  3.344738E-01  9.696470E+02  1.000000E-01  1.100000E-17  1.100000E-17  1.100000E-17  0.000000E+00  1.000000E+00
  5.000000E-01  1.500000E+00 -2.500000E+00  5.646625E+05  8.250000E+01  0.000000E+00  1.000000E+00  1.000000E+00  0.000000E+00  0.000000E+00  3.222620E-01  9.702857E+02  1.000000E-01  1.100000E-17  1.100000E-17  1.100000E-17  0.000000E+00  1.000000E+00
  1.500000E+00  1.500000E+00 -2.500000E+00  5.646625E+05  8.250000E+01  0.000000E+00  1.000000E+00  1.000000E+00  0.000000E+00  0.000000E+00  3.222620E-01  9.702857E+02  1.000000E-01  1.100000E-17  1.100000E-17  1.100000E-17  0.000000E+00  1.000000E+00
  2.500000E+00  1.500000E+00 -2.500000E+00  5.654955E+05  8.250003E+01  0.000000E+00  1.000000E+00  1.000000E+00  0.000000E+00  0.000000E+00  3.222623E-01  9.702860E+02  3.000008E-01  1.100000E-10  1.100000E-10  1.100000E-10  0.000000E+00  1.000000E+00
  3.500000E+00  1.500000E+00 -2.500000E+00  5.646625E+05  8.250000E+01  0.000000E+00  1.000000E+00  1.000000E+00  0.000000E+00  0.000000E+00  3.222620E-01  9.702857E+02  1.000000E-01  1.100000E-17  1.100000E-17  1.100000E-17  0.000000E+00  1.000000E+00
  4.500000E+00  1.500000E+00 -2.500000E+00  5.646625E+05  8.250000E+01  0.000000E+00  1.000000E+00  1.000000E+00  0.000000E+00  0.000000E+00  3.222620E-01  9.702857E+02  1.000000E-01  1.100000E-17  1.100000E-17  1.100000E-17  0.000000E+00  1.000000E+00
  5.000000E-01  1.500000E+00 -1.500000E+00  5.546175E+05  8.150000E+01  0.000000E+00  1.000000E+00  1.000000E+00  0.000000E+00  0.000000E+00  3.104206E-01  9.709194E+02  1.000000E-01  1.100000E-17  1.100000E-17  1.100000E-17  0.000000E+00  1.000000E+00
  1.500000E+00  1.500000E+00 -1.500000E+00  5.546175E+05  8.150000E+01  0.000000E+00  1.000000E+00  1.000000E+00  0.000000E+00  0.000000E+00  3.104206E-01  9.709194E+02  1.000000E-01  1.100000E-17  1.100000E-17  1.100000E-17  0.000000E+00  1.000000E+00
  2.500000E+00  1.500000E+00 -1.500000E+00  5.557953E+05  8.150003E+01  0.000000E+00  1.000000E+00  1.000000E+00  0.000000E+00  0.000000E+00  3.104210E-01  9.709199E+02  3.000011E-01  1.100000E-10  1.100000E-10  1.100000E-10  0.000000E+00  1.000000E+00
  3.500000E+00  1.500000E+00 -1.500000E+00  5.546175E+05  8.150000E+01  0.000000E+00  1.000000E+00  1.000000E+00  0.000000E+00  0.000000E+00  3.104206E-01  9.709194E+02  1.000000E-01  1.100000E-17  1.100000E-17  1.100000E-17  0.000000E+00  1.000000E+00
  4.500000E+00  1.500000E+00 -1.500000E+00  5.546175E+05  8.150000E+01  0.000000E+00  1.000000E+00  1.000000E+00  0.000000E+00  0.000000E+00  3.104206E-01  9.709194E+02  1.000000E-01  1.100000E-17  1.100000E-17  1.100000E-17  0.000000E+00  1.000000E+00
  5.000000E-01  1.500000E+00 -5.000000E-01  5.445725E+05  8.050000E+01  0.000000E+00  1.000000E+00  1.000000E+00  0.000000E+00  0.000000E+00  2.989407E-01  9.715482E+02  1.000000E-01  1.100000E-17  1.100000E-17  1.100000E-17  0.000000E+00  1.000000E+00
  1.500000E+00  1.500000E+00 -5.000000E-01  5.445725E+05  8.050000E+01  0.000000E+00  1.000000E+00  1.000000E+00  0.000000E+00  0.000000E+00  2.989407E-01  9.715482E+02  1.000000E-01  1.100000E-17  1.100000E-17  1.100000E-17  0.000000E+00  1.000000E+00
  2.500000E+00  1.500000E+00 -5.000000E-01  5.461675E+05  8.050004E+01  0.000000E+00  1.000000E+00  1.000000E+00  0.000000E+00  0.000000E+00  2.989412E-01  9.715489E+02  3.000015E-01  1.100000E-10  1.100000E-10  1.100000E-10  0.000000E+00  1.000000E+00
  3.500000E+00  1.500000E+00 -5.000000E-01  5.445725E+05  8.050000E+01  0.000000E+00  1.000000E+00  1.000000E+00  0.000000E+00  0.000000E+00  2.989407E-01  9.715482E+02  1.000000E-01  1.100000E-17  1.100000E-17  1.100000E-17  0.000000E+00  1.000000E+00
  4.500000E+00  1.500000E+00 -5.000000E-01  5.445725E+05  8.050000E+01  0.000000E+00  1.000000E+00  1.000000E+00  0.000000E+00  0.000000E+00  2.989407E-01  9.715482E+02  1.000000E-01  1.100000E-17  1.100000E-17  1.100000E-17  0.000000E+00  1.000000E+00
  5.000000E-01  2.500000E+00 -9.500000E+00  6.346300E+05  8.950000E+01  0.000000E+00  1.000000E+00  1.000000E+00  0.000000E+00  0.000000E+00  4.160223E-01  9.657143E+02  9.999989E-02  1.100000E-12  1.100000E-12  1.100000E-12  0.000000E+00  1.000000E+00
  1.500000E+00  2.500000E+00 -9.500000E+00  6.342948E+05  8.949999E+01  0.000000E+00  1.000000E+00  1.000000E+00  0.000000E+00  0.000000E+00  4.160222E-01  9.657141E+02  9.999978E-02  1.100000E-12  1.100000E-12  1.100000E-12  0.000000E+00  1.000000E+00
  2.500000E+00  2.500000E+00 -9.500000E+00  6.335619E+05  8.949996E+01  0.000000E+00  1.000000E+00  1.000000E+00  0.000000E+00  0.000000E+00  4.160218E-01  9.657138E+02  2.999986E-01  1.100000E-10  1.100000E-10  1.100000E-10  0.000000E+00  1.000000E+00
  3.500000E+00  2.500000E+00 -9.500000E+00  6.342948E+05  8.949999E+01  0.000000E+00  1.000000E+00  1.000000E+00  0.000000E+00  0.000000E+00  4.160222E-01  9.657141E+02  9.999978E-02  1.100000E-12  1.100000E-12  1.100000E-12  0.000000E+00  1.000000E+00
  4.500000E+00  2.500000E+00 -9.500000E+00  6.346300E+05  8.950000E+01  0.000000E+00  1.000000E+00  1.000000E+00  0.000000E+00  0.000000E+00  4.160223E-01  9.657143E+02  9.999989E-02  1.100000E-12  1.100000E-12  1.100000E-12  0.000000E+00  1.000000E+00
  5.000000E-01  2.500000E+00 -8.500000E+00  6.247699E+05  8.850000E+01  0.000000E+00  1.000000E+00  1.000000E+00  0.000000E+00  0.000000E+00  4.013994E-01  9.663816E+02  9.999995E-02  1.100000E-12  1.100000E-12  1.100000E-12  0.000000E+00  1.000000E+00
  1.500000E+00  2.500000E+00 -8.500000E+00  6.245139E+05  8.850000E+01  0.000000E+00  1.000000E+00  1.000000E+00  0.000000E+00  0.000000E+00  4.013993E-01  9.663815E+02  9.999987E-02  1.100000E-12  1.100000E-12  1.100000E-12  0.000000E+00  1.000000E+00
  2.500000E+00  2.500000E+00 -8.500000E+00  6.239769E+05  8.849998E+01  0.000000E+00  1.000000E+00  1.000000E+00  0.000000E+00  0.000000E+00  4.013991E-01  9.663813E+02  2.999991E-01  1.100000E-10  1.100000E-10  1.100000E-10  0.000000E+00  1.000000E+00
  3.500000E+00  2.500000E+00 -8.500000E+00  6.245139E+05  8.850000E+01  0.000000E+00  1.000000E+00  1.000000E+00  0.000000E+00  0.000000E+00  4.013993E-01  9.663815E+02  9.999987E-02  1.100000E-12  1.100000E-12  1.100000E-12  0.000000E+00  1.000000E+00
  4.500000E+00  2.500000E+00 -8.500000E+00  6.247699E+05  8.850000E+01  0.000000E+00  1.000000E+00  1.000000E+00  0.000000E+00  0.000000E+00  4.013994E-01  9.663816E+02  9.999995E-02  1.100000E-12  1.100000E-12  1.100000E-12  0.000000E+00  1.000000E+00
  5.000000E-01  2.500000E+00 -7.500000E+00  6.148107E+05  8.750000E+01  0.000000E+00  1.000000E+00  1.000000E+00  0.000000E+00  0.000000E+00  3.872015E-01  9.670442E+02  9.999998E-02  1.100000E-12  1.100000E-12  1.100000E-12  0.000000E+00  1.000000E+00
  1.500000E+00  2.500000E+00 -7.500000E+00  6.146435E+05  8.750000E+01  0.000000E+00  1.000000E+00  1.000000E+00  0.000000E+00  0.000000E+00  3.872015E-01  9.670442E+02  9.999992E-02  1.100000E-12  1.100000E-12  1.100000E-12  0.000000E+00  1.000000E+00
  2.500000E+00  2.500000E+00 -7.500000E+00  6.143023E+05  8.749999E+01  0.000000E+00  1.000000E+00  1.000000E+00  0.000000E+00  0.000000E+00  3.872014E-01  9.670440E+02  2.999994E-01  1.100000E-10  1.100000E-10  1.100000E-10  0.000000E+00  1.000000E+00
  3.500000E+00  2.500000E+00 -7.500000E+00  6.146435E+05  8.750000E+01  0.000000E+00  1.000000E+00  1.000000E+00  0.000000E+00  0.000000E+00  3.872015E-01  9.670442E+02  9.999992E-02  1.100000E-12  1.100000E-12  1.100000E-12  0.000000E+00  1.000000E+00
  4.500000E+00  2.500000E+00 -7.500000E+00  6.148107E+05  8.750000E+01  0.000000E+00  1.000000E+00  1.000000E+00  0.000000E+00  0.000000E+00  3.872015E-01  9.670442E+02  9.999998E-02  1.100000E-12  1.100000E-12  1.100000E-12  0.000000E+00  1.000000E+00
  5.000000E-01  2.500000E+00 -6.500000E+00  6.048424E+05  8.650000E+01  0.000000E+00  1.000000E+00  1.000000E+00  0.000000E+00  0.000000E+00  3.734193E-01  9.677021E+02  1.000000E-01  1.100000E-12  1.100000E-12  1.100000E-12  0.000000E+00  1.000000E+00
  1.500000E+00  2.500000E+00 -6.500000E+00  6.047482E+05  8.650000E+01  0.000000E+00  1.000000E+00  1.000000E+00  0.000000E+00  0.000000E+00  3.734193E-01  9.677021E+02  9.999997E-02  1.100000E-12  1.100000E-12  1.100000E-12  0.000000E+00  1.000000E+00