Title="TOUGHREACT V3.30-OMP flowdata.tec: P,T,SAT & Other Variables"                                                                                                                                                                                                                                                                                                                                                                                                                                                                                                                                                                                                                                                                                                                                                            
Variables= "X(m)"     "Y(m)"      "Z(m)"       "P(Pa)"        "T(C)"      "SatGas"      "SatLiq"          "X1"          "X2"    "Pcap(Pa)"  "DGas_kg/m3"  "DLiq_kg/m3"    "Porosity"  "Perm_X(m2)"  "Perm_Y(m2)"  "Perm_Z(m2)"    "Krel_Gas"    "Krel_Liq"                                                                                                                                                                                                                                                                                                                                                                                                                                                                                                                                                                      
Zone T= "5.18400000E+05 sec" I=     9 J=     9 K=     5 F=Point
  5.000000E+00  5.000000E+00 -5.050000E+01  1.399310E+06  3.007441E+01  0.000000E+00  1.000000E+00  1.000000E+00  0.000000E+00  0.000000E+00  3.049108E-02  9.963057E+02  2.000034E-01  1.100000E-17  1.100000E-17  1.100000E-17  0.000000E+00  1.000000E+00                                                                                                                                                                                                                                                                                                                                                                                                                                                                                                                                                                    
  1.500000E+01  5.000000E+00 -5.050000E+01  1.399310E+06  3.007441E+01  0.000000E+00  1.000000E+00  1.000000E+00  0.000000E+00  0.000000E+00  3.049108E-02  9.963057E+02  2.000034E-01  1.100000E-17  1.100000E-17  1.100000E-17  0.000000E+00  1.000000E+00                                                                                                                                                                                                                                                                                                                                                                                                                                                                                                                                                                    
  2.500000E+01  5.000000E+00 -5.050000E+01  1.399310E+06  3.007441E+01  0.000000E+00  1.000000E+00  1.000000E+00  0.000000E+00  0.000000E+00  3.049108E-02  9.963057E+02  2.000034E-01  1.100000E-17  1.100000E-17  1.100000E-17  0.000000E+00  1.000000E+00                                                                                                                                                                                                                                                                                                                                                                                                                                                                                                                                                                    
  3.500000E+01  5.000000E+00 -5.050000E+01  1.399310E+06  3.007441E+01  0.000000E+00  1.000000E+00  1.000000E+00  0.000000E+00  0.000000E+00  3.049108E-02  9.963057E+02  2.000034E-01  1.100000E-17  1.100000E-17  1.100000E-17  0.000000E+00  1.000000E+00                                                                                                                                                                                                                                                                                                                                                                                                                                                                                                                                                                    
  4.500000E+01  5.000000E+00 -5.050000E+01  1.399310E+06  3.007441E+01  0.000000E+00  1.000000E+00  1.000000E+00  0.000000E+00  0.000000E+00  3.049108E-02  9.963057E+02  2.000034E-01  1.100000E-17  1.100000E-17  1.100000E-17  0.000000E+00  1.000000E+00                                                                                                                                                                                                                                                                                                                                                                                                                                                                                                                                                                    
  5.500000E+01  5.000000E+00 -5.050000E+01  1.399309E+06  3.007441E+01  0.000000E+00  1.000000E+00  1.000000E+00  0.000000E+00  0.000000E+00  3.049108E-02  9.963057E+02  2.000034E-01  1.100000E-17  1.100000E-17  1.100000E-17  0.000000E+00  1.000000E+00                                                                                                                                                                                                                                                                                                                                                                                                                                                                                                                                                                    
  6.500000E+01  5.000000E+00 -5.050000E+01  1.399309E+06  3.007441E+01  0.000000E+00  1.000000E+00  1.000000E+00  0.000000E+00  0.000000E+00  3.049108E-02  9.963057E+02  2.000034E-01  1.100000E-17  1.100000E-17  1.100000E-17  0.000000E+00  1.000000E+00                                                                                                                                                                                                                                                                                                                                                                                                                                                                                                                                                                    
  7.500000E+01  5.000000E+00 -5.050000E+01  1.399308E+06  3.007441E+01  0.000000E+00  1.000000E+00  1.000000E+00  0.000000E+00  0.000000E+00  3.049108E-02  9.963057E+02  2.000034E-01  1.100000E-17  1.100000E-17  1.100000E-17  0.000000E+00  1.000000E+00                                                                                                                                                                                                                                                                                                                                                                                                                                                                                                                                                                    
  8.500000E+01  5.000000E+00 -5.050000E+01  1.399309E+06  3.007441E+01  0.000000E+00  1.000000E+00  1.000000E+00  0.000000E+00  0.000000E+00  3.049108E-02  9.963057E+02  2.000034E-01  1.100000E-17  1.100000E-17  1.100000E-17  0.000000E+00  1.000000E+00                                                                                                                                                                                                                                                                                                                                                                                                                                                                                                                                                                    
  5.000000E+00  5.000000E+00 -4.550000E+01  1.339436E+06  2.997581E+01  0.000000E+00  1.000000E+00  1.000000E+00  0.000000E+00  0.000000E+00  3.032869E-02  9.963093E+02  1.999968E-01  1.100000E-13  1.100000E-13  1.100000E-15  0.000000E+00  1.000000E+00                                                                                                                                                                                                                                                                                                                                                                                                                                                                                                                                                                    
  1.500000E+01  5.000000E+00 -4.550000E+01  1.339436E+06  2.997581E+01  0.000000E+00  1.000000E+00  1.000000E+00  0.000000E+00  0.000000E+00  3.032869E-02  9.963093E+02  1.999968E-01  1.100000E-13  1.100000E-13  1.100000E-15  0.000000E+00  1.000000E+00                                                                                                                                                                                                                                                                                                                                                                                                                                                                                                                                                                    
  2.500000E+01  5.000000E+00 -4.550000E+01  1.339436E+06  2.997581E+01  0.000000E+00  1.000000E+00  1.000000E+00  0.000000E+00  0.000000E+00  3.032869E-02  9.963093E+02  1.999968E-01  1.100000E-13  1.100000E-13  1.100000E-15  0.000000E+00  1.000000E+00                                                                                                                                                                                                                                                                                                                                                                                                                                                                                                                                                                    
  3.500000E+01  5.000000E+00 -4.550000E+01  1.339436E+06  2.997581E+01  0.000000E+00  1.000000E+00  1.000000E+00  0.000000E+00  0.000000E+00  3.032869E-02  9.963093E+02  1.999968E-01  1.100000E-13  1.100000E-13  1.100000E-15  0.000000E+00  1.000000E+00                                                                                                                                                                                                                                                                                                                                                                                                                                                                                                                                                                    
  4.500000E+01  5.000000E+00 -4.550000E+01  1.339436E+06  2.997581E+01  0.000000E+00  1.000000E+00  1.000000E+00  0.000000E+00  0.000000E+00  3.032869E-02  9.963093E+02  1.999968E-01  1.100000E-13  1.100000E-13  1.100000E-15  0.000000E+00  1.000000E+00                                                                                                                                                                                                                                                                                                                                                                                                                                                                                                                                                                    
  5.500000E+01  5.000000E+00 -4.550000E+01  1.339435E+06  2.997581E+01  0.000000E+00  1.000000E+00  1.000000E+00  0.000000E+00  0.000000E+00  3.032869E-02  9.963093E+02  1.999968E-01  1.100000E-13  1.100000E-13  1.100000E-15  0.000000E+00  1.000000E+00                                                                                                                                                                                                                                                                                                                                                                                                                                                                                                                                                                    
  6.500000E+01  5.000000E+00 -4.550000E+01  1.339434E+06  2.997581E+01  0.000000E+00  1.000000E+00  1.000000E+00  0.000000E+00  0.000000E+00  3.032869E-02  9.963093E+02  1.999968E-01  1.100000E-13  1.100000E-13  1.100000E-15  0.000000E+00  1.000000E+00                                                                                                                                                                                                                                                                                                                                                                                                                                                                                                                                                                    
  7.500000E+01  5.000000E+00 -4.550000E+01  1.339431E+06  2.997581E+01  0.000000E+00  1.000000E+00  1.000000E+00  0.000000E+00  0.000000E+00  3.032869E-02  9.963093E+02  1.999968E-01  1.100000E-13  1.100000E-13  1.100000E-15  0.000000E+00  1.000000E+00                                                                                                                                                                                                                                                                                                                                                                                                                                                                                                                                                                    
  8.500000E+01  5.000000E+00 -4.550000E+01  1.339433E+06  2.997581E+01  0.000000E+00  1.000000E+00  1.000000E+00  0.000000E+00  0.000000E+00  3.032869E-02  9.963093E+02  1.999968E-01  1.100000E-13  1.100000E-13  1.100000E-15  0.000000E+00  1.000000E+00                                                                                                                                                                                                                                                                                                                                                                                                                                                                                                                                                                    
  5.000000E+00  5.000000E+00 -3.000000E+01  1.188088E+06  2.991251E+01  0.000000E+00  1.000000E+00  1.000000E+00  0.000000E+00  0.000000E+00  3.022482E-02  9.962615E+02  9.999975E-02  1.100000E-12  1.100000E-12  1.100000E-12  0.000000E+00  1.000000E+00                                                                                                                                                                                                                                                                                                                                                                                                                                                                                                                                                                    
  1.500000E+01  5.000000E+00 -3.000000E+01  1.188088E+06  2.991251E+01  0.000000E+00  1.000000E+00  1.000000E+00  0.000000E+00  0.000000E+00  3.022482E-02  9.962615E+02  9.999975E-02  1.100000E-12  1.100000E-12  1.100000E-12  0.000000E+00  1.000000E+00                                                                                                                                                                                                                                                                                                                                                                                                                                                                                                                                                                    
  2.500000E+01  5.000000E+00 -3.000000E+01  1.188088E+06  2.991251E+01  0.000000E+00  1.000000E+00  1.000000E+00  0.000000E+00  0.000000E+00  3.022482E-02  9.962615E+02  9.999975E-02  1.100000E-12  1.100000E-12  1.100000E-12  0.000000E+00  1.000000E+00                                                                                                                                                                                                                                                                                                                                                                                                                                                                                                                                                                    
  3.500000E+01  5.000000E+00 -3.000000E+01  1.188088E+06  2.991251E+01  0.000000E+00  1.000000E+00  1.000000E+00  0.000000E+00  0.000000E+00  3.022482E-02  9.962615E+02  9.999975E-02  1.100000E-12  1.100000E-12  1.100000E-12  0.000000E+00  1.000000E+00                                                                                                                                                                                                                                                                                                                                                                                                                                                                                                                                                                    
  4.500000E+01  5.000000E+00 -3.000000E+01  1.188088E+06  2.991251E+01  0.000000E+00  1.000000E+00  1.000000E+00  0.000000E+00  0.000000E+00  3.022482E-02  9.962615E+02  9.999975E-02  1.100000E-12  1.100000E-12  1.100000E-12  0.000000E+00  1.000000E+00                                                                                                                                                                                                                                                                                                                                                                                                                                                                                                                                                                    
  5.500000E+01  5.000000E+00 -3.000000E+01  1.188088E+06  2.991251E+01  0.000000E+00  1.000000E+00  1.000000E+00  0.000000E+00  0.000000E+00  3.022482E-02  9.962615E+02  9.999975E-02  1.100000E-12  1.100000E-12  1.100000E-12  0.000000E+00  1.000000E+00                                                                                                                                                                                                                                                                                                                                                                                                                                                                                                                                                                    
  6.500000E+01  5.000000E+00 -3.000000E+01  1.188087E+06  2.991251E+01  0.000000E+00  1.000000E+00  1.000000E+00  0.000000E+00  0.000000E+00  3.022482E-02  9.962615E+02  9.999975E-02  1.100000E-12  1.100000E-12  1.100000E-12  0.000000E+00  1.000000E+00                                                                                                                                                                                                                                                                                                                                                                                                                                                                                                                                                                    
  7.500000E+01  5.000000E+00 -3.000000E+01  1.188087E+06  2.991251E+01  0.000000E+00  1.000000E+00  1.000000E+00  0.000000E+00  0.000000E+00  3.022482E-02  9.962615E+02  9.999975E-02  1.100000E-12  1.100000E-12  1.100000E-12  0.000000E+00  1.000000E+00                                                                                                                                                                                                                                                                                                                                                                                                                                                                                                                                                                    
  8.500000E+01  5.000000E+00 -3.000000E+01  1.188087E+06  2.991251E+01  0.000000E+00  1.000000E+00  1.000000E+00  0.000000E+00  0.000000E+00  3.022482E-02  9.962615E+02  9.999975E-02  1.100000E-12  1.100000E-12  1.100000E-12  0.000000E+00  1.000000E+00                                                                                                                                                                                                                                                                                                                                                                                                                                                                                                                                                                    
  5.000000E+00  5.000000E+00 -1.000000E+01  9.928265E+05  2.984252E+01  0.000000E+00  1.000000E+00  1.000000E+00  0.000000E+00  0.000000E+00  3.011035E-02  9.961963E+02  1.000016E-01  1.100000E-12  1.100000E-12  1.100000E-12  0.000000E+00  1.000000E+00                                                                                                                                                                                                                                                                                                                                                                                                                                                                                                                                                                    
  1.500000E+01  5.000000E+00 -1.000000E+01  9.928265E+05  2.984252E+01  0.000000E+00  1.000000E+00  1.000000E+00  0.000000E+00  0.000000E+00  3.011035E-02  9.961963E+02  1.000016E-01  1.100000E-12  1.100000E-12  1.100000E-12  0.000000E+00  1.000000E+00                                                                                                                                                                                                                                                                                                                                                                                                                                                                                                                                                                    
  2.500000E+01  5.000000E+00 -1.000000E+01  9.928265E+05  2.984252E+01  0.000000E+00  1.000000E+00  1.000000E+00  0.000000E+00  0.000000E+00  3.011035E-02  9.961963E+02  1.000016E-01  1.100000E-12  1.100000E-12  1.100000E-12  0.000000E+00  1.000000E+00                                                                                                                                                                                                                                                                                                                                                                                                                                                                                                                                                                    
  3.500000E+01  5.000000E+00 -1.000000E+01  9.928265E+05  2.984252E+01  0.000000E+00  1.000000E+00  1.000000E+00  0.000000E+00  0.000000E+00  3.011035E-02  9.961963E+02  1.000016E-01  1.100000E-12  1.100000E-12  1.100000E-12  0.000000E+00  1.000000E+00                                                                                                                                                                                                                                                                                                                                                                                                                                                                                                                                                                    
  4.500000E+01  5.000000E+00 -1.000000E+01  9.928265E+05  2.984252E+01  0.000000E+00  1.000000E+00  1.000000E+00  0.000000E+00  0.000000E+00  3.011035E-02  9.961963E+02  1.000016E-01  1.100000E-12  1.100000E-12  1.100000E-12  0.000000E+00  1.000000E+00                                                                                                                                                                                                                                                                                                                                                                                                                                                                                                                                                                    
  5.500000E+01  5.000000E+00 -1.000000E+01  9.928265E+05  2.984252E+01  0.000000E+00  1.000000E+00  1.000000E+00  0.000000E+00  0.000000E+00  3.011035E-02  9.961963E+02  1.000016E-01  1.100000E-12  1.100000E-12  1.100000E-12  0.000000E+00  1.000000E+00                                                                                                                                                                                                                                                                                                                                                                                                                                                                                                                                                                    
  6.500000E+01  5.000000E+00 -1.000000E+01  9.928265E+05  2.984252E+01  0.000000E+00  1.000000E+00  1.000000E+00  0.000000E+00  0.000000E+00  3.011035E-02  9.961963E+02  1.000016E-01  1.100000E-12  1.100000E-12  1.100000E-12  0.000000E+00  1.000000E+00                                                                                                                                                                                                                                                                                                                                                                                                                                                                                                                                                                    
  7.500000E+01  5.000000E+00 -1.000000E+01  9.928265E+05  2.984252E+01  0.000000E+00  1.000000E+00  1.000000E+00  0.000000E+00  0.000000E+00  3.011035E-02  9.961963E+02  1.000016E-01  1.100000E-12  1.100000E-12  1.100000E-12  0.000000E+00  1.000000E+00                                                                                                                                                                                                                                                                                                                                                                                                                                                                                                                                                                    