Title="TOUGHREACT V3.30-OMP flowvector.tec: Liq & Gas Fluxes (kg/s/m^2), Pore Velocities (m/s), & Heat Fluxes (J/s/m2)"                                                                                                                                                                                                                                                                                                                                                                                                                                                                                                                                                                                                                                                                                                         
Variables= "X(m)"     "Y(m)"      "Z(m)"     "FluxLiq"   "FluxLiq_X"   "FluxLiq_Y"   "FluxLiq_Z"   "PorVelLiq"  "PorVelLiqX"  "PorVelLiqY"  "PorVelLiqZ"     "FluxGas"   "FluxGas_X"   "FluxGas_Y"   "FluxGas_Z"   "PorVelGas"  "PorVelGasX"  "PorVelGasY"  "PorVelGasZ"    "HeatFlux"  "HeatFlux_X"  "HeatFlux_Y"  "HeatFlux_Z"                                                                                                                                                                                                                                                                                                                                                                                                                                                                                                
Zone T= "1.00000000E+09 sec" I=     9 J=    10 K=    24 F=Point
  1.250000E+02  1.250000E+02 -5.425000E+03  6.199966E-09 -5.933072E-10  3.296669E-10 -6.162701E-09  3.389133E-11 -3.260938E-12  1.812522E-12 -3.368536E-11  0.000000E+00  0.000000E+00  0.000000E+00  0.000000E+00  0.000000E+00  0.000000E+00  0.000000E+00  0.000000E+00  1.467782E-01  3.929038E-03 -2.501798E-03  1.467043E-01                                                                                                                                                                                                                                                                                                                                                                                                                                                                                              
  3.750000E+02  1.250000E+02 -5.425000E+03  6.573567E-09 -1.371343E-09  3.197266E-10 -6.420979E-09  3.592342E-11 -7.535172E-12  1.757151E-12 -3.508028E-11  0.000000E+00  0.000000E+00  0.000000E+00  0.000000E+00  0.000000E+00  0.000000E+00  0.000000E+00  0.000000E+00  1.491545E-01  8.999433E-03 -2.587874E-03  1.488602E-01                                                                                                                                                                                                                                                                                                                                                                                                                                                                                              
  6.250000E+02  1.250000E+02 -5.425000E+03  6.812285E-09 -1.368591E-09  3.047186E-10 -6.666433E-09  3.720520E-11 -7.517046E-12  1.673787E-12 -3.639944E-11  0.000000E+00  0.000000E+00  0.000000E+00  0.000000E+00  0.000000E+00  0.000000E+00  0.000000E+00  0.000000E+00  1.514543E-01  8.613243E-03 -2.697694E-03  1.511851E-01                                                                                                                                                                                                                                                                                                                                                                                                                                                                                              
  8.750000E+02  1.250000E+02 -5.425000E+03  6.827546E-09 -8.068157E-10  2.936151E-10 -6.773346E-09  3.726721E-11 -4.430094E-12  1.612200E-12 -3.696782E-11  0.000000E+00  0.000000E+00  0.000000E+00  0.000000E+00  0.000000E+00  0.000000E+00  0.000000E+00  0.000000E+00  1.527595E-01  3.370581E-03 -2.784633E-03  1.526969E-01                                                                                                                                                                                                                                                                                                                                                                                                                                                                                              
  1.050000E+03  1.250000E+02 -5.425000E+03  6.664847E-09  1.962538E-14  2.925030E-10 -6.658425E-09  3.637510E-11  1.077452E-16  1.606094E-12 -3.633962E-11  0.000000E+00  0.000000E+00  0.000000E+00  0.000000E+00  0.000000E+00  0.000000E+00  0.000000E+00  0.000000E+00  1.536095E-01  8.598663E-10 -2.796984E-03  1.535840E-01                                                                                                                                                                                                                                                                                                                                                                                                                                                                                              
  1.225000E+03  1.250000E+02 -5.425000E+03  6.827569E-09  8.068686E-10  2.936259E-10 -6.773363E-09  3.726734E-11  4.430385E-12  1.612259E-12 -3.696792E-11  0.000000E+00  0.000000E+00  0.000000E+00  0.000000E+00  0.000000E+00  0.000000E+00  0.000000E+00  0.000000E+00  1.527595E-01 -3.370592E-03 -2.784627E-03  1.526969E-01                                                                                                                                                                                                                                                                                                                                                                                                                                                                                              
  1.475000E+03  1.250000E+02 -5.425000E+03  6.812276E-09  1.368599E-09  3.046966E-10 -6.666423E-09  3.720515E-11  7.517085E-12  1.673667E-12 -3.639939E-11  0.000000E+00  0.000000E+00  0.000000E+00  0.000000E+00  0.000000E+00  0.000000E+00  0.000000E+00  0.000000E+00  1.514544E-01 -8.613215E-03 -2.697693E-03  1.511852E-01                                                                                                                                                                                                                                                                                                                                                                                                                                                                                              
  1.725000E+03  1.250000E+02 -5.425000E+03  6.573520E-09  1.371304E-09  3.197108E-10 -6.420940E-09  3.592316E-11  7.534956E-12  1.757064E-12 -3.508006E-11  0.000000E+00  0.000000E+00  0.000000E+00  0.000000E+00  0.000000E+00  0.000000E+00  0.000000E+00  0.000000E+00  1.491545E-01 -8.999395E-03 -2.587875E-03  1.488603E-01                                                                                                                                                                                                                                                                                                                                                                                                                                                                                              
  1.975000E+03  1.250000E+02 -5.425000E+03  6.199944E-09  5.932941E-10  3.296776E-10 -6.162680E-09  3.389121E-11  3.260866E-12  1.812581E-12 -3.368524E-11  0.000000E+00  0.000000E+00  0.000000E+00  0.000000E+00  0.000000E+00  0.000000E+00  0.000000E+00  0.000000E+00  1.467782E-01 -3.929040E-03 -2.501800E-03  1.467042E-01                                                                                                                                                                                                                                                                                                                                                                                                                                                                                              
  1.250000E+02  1.250000E+02 -5.225000E+03  2.712989E-08  1.589666E-10 -1.757721E-10 -2.712886E-08  1.459540E-10  8.641608E-13 -9.559325E-13 -1.459483E-10  0.000000E+00  0.000000E+00  0.000000E+00  0.000000E+00  0.000000E+00  0.000000E+00  0.000000E+00  0.000000E+00  5.150515E-01  6.351270E-03 -3.567257E-03  5.150000E-01                                                                                                                                                                                                                                                                                                                                                                                                                                                                                              
  3.750000E+02  1.250000E+02 -5.225000E+03  2.752673E-08  3.821741E-10 -2.009898E-10 -2.752335E-08  1.480034E-10  2.076794E-12 -1.092479E-12 -1.479848E-10  0.000000E+00  0.000000E+00  0.000000E+00  0.000000E+00  0.000000E+00  0.000000E+00  0.000000E+00  0.000000E+00  5.251003E-01  1.415127E-02 -3.727139E-03  5.248963E-01                                                                                                                                                                                                                                                                                                                                                                                                                                                                                              
  6.250000E+02  1.250000E+02 -5.225000E+03  2.786425E-08  3.780840E-10 -2.347297E-10 -2.786069E-08  1.497168E-10  2.053564E-12 -1.275019E-12 -1.496973E-10  0.000000E+00  0.000000E+00  0.000000E+00  0.000000E+00  0.000000E+00  0.000000E+00  0.000000E+00  0.000000E+00  5.347012E-01  1.315642E-02 -3.927961E-03  5.345249E-01                                                                                                                                                                                                                                                                                                                                                                                                                                                                                              
  8.750000E+02  1.250000E+02 -5.225000E+03  2.798304E-08  1.584879E-10 -2.605706E-10 -2.798138E-08  1.502839E-10  8.605351E-13 -1.414737E-12 -1.502747E-10  0.000000E+00  0.000000E+00  0.000000E+00  0.000000E+00  0.000000E+00  0.000000E+00  0.000000E+00  0.000000E+00  5.404898E-01  6.269800E-03 -4.103355E-03  5.404379E-01                                                                                                                                                                                                                                                                                                                                                                                                                                                                                              
  1.050000E+03  1.250000E+02 -5.225000E+03  2.785382E-08 -3.902672E-15 -2.639993E-10 -2.785257E-08  1.495710E-10 -2.118496E-17 -1.433273E-12 -1.495642E-10  0.000000E+00  0.000000E+00  0.000000E+00  0.000000E+00  0.000000E+00  0.000000E+00  0.000000E+00  0.000000E+00  5.419680E-01 -2.087670E-08 -4.135480E-03  5.419522E-01                                                                                                                                                                                                                                                                                                                                                                                                                                                                                              
  1.225000E+03  1.250000E+02 -5.225000E+03  2.798307E-08 -1.584424E-10 -2.605490E-10 -2.798140E-08  1.502840E-10 -8.602877E-13 -1.414619E-12 -1.502749E-10  0.000000E+00  0.000000E+00  0.000000E+00  0.000000E+00  0.000000E+00  0.000000E+00  0.000000E+00  0.000000E+00  5.404898E-01 -6.269786E-03 -4.103342E-03  5.404379E-01                                                                                                                                                                                                                                                                                                                                                                                                                                                                                              
  1.475000E+03  1.250000E+02 -5.225000E+03  2.786426E-08 -3.780270E-10 -2.347688E-10 -2.786071E-08  1.497169E-10 -2.053255E-12 -1.275231E-12 -1.496974E-10  0.000000E+00  0.000000E+00  0.000000E+00  0.000000E+00  0.000000E+00  0.000000E+00  0.000000E+00  0.000000E+00  5.347013E-01 -1.315634E-02 -3.928007E-03  5.345250E-01                                                                                                                                                                                                                                                                                                                                                                                                                                                                                              
  1.725000E+03  1.250000E+02 -5.225000E+03  2.752673E-08 -3.821962E-10 -2.010428E-10 -2.752334E-08  1.480034E-10 -2.076914E-12 -1.092767E-12 -1.479847E-10  0.000000E+00  0.000000E+00  0.000000E+00  0.000000E+00  0.000000E+00  0.000000E+00  0.000000E+00  0.000000E+00  5.251003E-01 -1.415130E-02 -3.727187E-03  5.248964E-01                                                                                                                                                                                                                                                                                                                                                                                                                                                                                              
  1.975000E+03  1.250000E+02 -5.225000E+03  2.712987E-08 -1.589963E-10 -1.757960E-10 -2.712883E-08  1.459538E-10 -8.643223E-13 -9.560623E-13 -1.459482E-10  0.000000E+00  0.000000E+00  0.000000E+00  0.000000E+00  0.000000E+00  0.000000E+00  0.000000E+00  0.000000E+00  5.150515E-01 -6.351338E-03 -3.567247E-03  5.150000E-01                                                                                                                                                                                                                                                                                                                                                                                                                                                                                              
  1.250000E+02  1.250000E+02 -4.975000E+03  5.318756E-08  1.330389E-09 -7.054058E-10 -5.316624E-08  2.792729E-10  7.011320E-12 -3.720313E-12 -2.791600E-10  0.000000E+00  0.000000E+00  0.000000E+00  0.000000E+00  0.000000E+00  0.000000E+00  0.000000E+00  0.000000E+00  9.179882E-01  1.466460E-02 -6.154744E-03  9.178504E-01                                                                                                                                                                                                                                                                                                                                                                                                                                                                                              
  3.750000E+02  1.250000E+02 -4.975000E+03  5.227763E-08  2.899674E-09 -7.781307E-10 -5.219135E-08  2.742844E-10  1.527296E-11 -4.099741E-12 -2.738282E-10  0.000000E+00  0.000000E+00  0.000000E+00  0.000000E+00  0.000000E+00  0.000000E+00  0.000000E+00  0.000000E+00  9.475343E-01  3.038507E-02 -6.659729E-03  9.470236E-01                                                                                                                                                                                                                                                                                                                                                                                                                                                                                              
  6.250000E+02  1.250000E+02 -4.975000E+03  5.155639E-08  2.642239E-09 -8.674548E-10 -5.148133E-08  2.702789E-10  1.390536E-11 -4.565515E-12 -2.698823E-10  0.000000E+00  0.000000E+00  0.000000E+00  0.000000E+00  0.000000E+00  0.000000E+00  0.000000E+00  0.000000E+00  9.691519E-01  2.587049E-02 -7.269340E-03  9.687792E-01                                                                                                                                                                                                                                                                                                                                                                                                                                                                                              
  8.750000E+02  1.250000E+02 -4.975000E+03  5.103651E-08  1.268162E-09 -9.473404E-10 -5.101195E-08  2.674108E-10  6.670126E-12 -4.982620E-12 -2.672812E-10  0.000000E+00  0.000000E+00  0.000000E+00  0.000000E+00  0.000000E+00  0.000000E+00  0.000000E+00  0.000000E+00  9.811318E-01  1.203502E-02 -7.906121E-03  9.810262E-01                                                                                                                                                                                                                                                                                                                                                                                                                                                                                              
  1.050000E+03  1.250000E+02 -4.975000E+03  5.087078E-08 -1.241501E-14 -9.665632E-10 -5.086160E-08  2.665247E-10 -6.527871E-17 -5.083301E-12 -2.664762E-10  0.000000E+00  0.000000E+00  0.000000E+00  0.000000E+00  0.000000E+00  0.000000E+00  0.000000E+00  0.000000E+00  9.836815E-01 -2.493903E-08 -8.106228E-03  9.836481E-01                                                                                                                                                                                                                                                                                                                                                                                                                                                                                              
  1.225000E+03  1.250000E+02 -4.975000E+03  5.103651E-08 -1.268155E-09 -9.473161E-10 -5.101196E-08  2.674108E-10 -6.670088E-12 -4.982492E-12 -2.672812E-10  0.000000E+00  0.000000E+00  0.000000E+00  0.000000E+00  0.000000E+00  0.000000E+00  0.000000E+00  0.000000E+00  9.811318E-01 -1.203502E-02 -7.906085E-03  9.810262E-01                                                                                                                                                                                                                                                                                                                                                                                                                                                                                              
  1.475000E+03  1.250000E+02 -4.975000E+03  5.155642E-08 -2.642218E-09 -8.674565E-10 -5.148136E-08  2.702790E-10 -1.390525E-11 -4.565524E-12 -2.698825E-10  0.000000E+00  0.000000E+00  0.000000E+00  0.000000E+00  0.000000E+00  0.000000E+00  0.000000E+00  0.000000E+00  9.691519E-01 -2.587046E-02 -7.269326E-03  9.687792E-01                                                                                                                                                                                                                                                                                                                                                                                                                                                                                              
  1.725000E+03  1.250000E+02 -4.975000E+03  5.227767E-08 -2.899666E-09 -7.781395E-10 -5.219139E-08  2.742846E-10 -1.527292E-11 -4.099787E-12 -2.738284E-10  0.000000E+00  0.000000E+00  0.000000E+00  0.000000E+00  0.000000E+00  0.000000E+00  0.000000E+00  0.000000E+00  9.475343E-01 -3.038507E-02 -6.659738E-03  9.470236E-01                                                                                                                                                                                                                                                                                                                                                                                                                                                                                              
  1.975000E+03  1.250000E+02 -4.975000E+03  5.318758E-08 -1.330383E-09 -7.054279E-10 -5.316626E-08  2.792729E-10 -7.011289E-12 -3.720429E-12 -2.791601E-10  0.000000E+00  0.000000E+00  0.000000E+00  0.000000E+00  0.000000E+00  0.000000E+00  0.000000E+00  0.000000E+00  9.179882E-01 -1.466461E-02 -6.154748E-03  9.178504E-01                                                                                                                                                                                                                                                                                                                                                                                                                                                                                              
  1.250000E+02  1.250000E+02 -4.725000E+03  7.001184E-08  2.001082E-09 -6.199325E-10 -6.998049E-08  3.578600E-10  1.018076E-11 -3.157573E-12 -3.577012E-10  0.000000E+00  0.000000E+00  0.000000E+00  0.000000E+00  0.000000E+00  0.000000E+00  0.000000E+00  0.000000E+00  1.179080E+00  3.520820E-02 -9.952524E-03  1.178512E+00                                                                                                                                                                                                                                                                                                                                                                                                                                                                                              
  3.750000E+02  1.250000E+02 -4.725000E+03  6.535033E-08  3.814591E-09 -7.515840E-10 -6.523458E-08  3.336677E-10  1.939315E-11 -3.821735E-12 -3.330817E-10  0.000000E+00  0.000000E+00  0.000000E+00  0.000000E+00  0.000000E+00  0.000000E+00  0.000000E+00  0.000000E+00  1.262840E+00  6.447743E-02 -1.163066E-02  1.261140E+00                                                                                                                                                                                                                                                                                                                                                                                                                                                                                              
  6.250000E+02  1.250000E+02 -4.725000E+03  6.291551E-08  2.941812E-09 -8.948664E-10 -6.284033E-08  3.209213E-10  1.493796E-11 -4.544239E-12 -3.205412E-10  0.000000E+00  0.000000E+00  0.000000E+00  0.000000E+00  0.000000E+00  0.000000E+00  0.000000E+00  0.000000E+00  1.296605E+00  4.666753E-02 -1.347314E-02  1.295694E+00                                                                                                                                                                                                                                                                                                                                                                                                                                                                                              
  8.750000E+02  1.250000E+02 -4.725000E+03  6.149555E-08  1.410923E-09 -1.056863E-09 -6.147028E-08  3.135008E-10  7.159078E-12 -5.362863E-12 -3.133732E-10  0.000000E+00  0.000000E+00  0.000000E+00  0.000000E+00  0.000000E+00  0.000000E+00  0.000000E+00  0.000000E+00  1.313870E+00  2.199871E-02 -1.584390E-02  1.313590E+00                                                                                                                                                                                                                                                                                                                                                                                                                                                                                              
  1.050000E+03  1.250000E+02 -4.725000E+03  6.052748E-08 -3.574682E-15 -1.155997E-09 -6.051644E-08  3.085695E-10 -1.813178E-17 -5.865244E-12 -3.085137E-10  0.000000E+00  0.000000E+00  0.000000E+00  0.000000E+00  0.000000E+00  0.000000E+00  0.000000E+00  0.000000E+00  1.329366E+00 -9.420314E-09 -1.749110E-02  1.329251E+00                                                                                                                                                                                                                                                                                                                                                                                                                                                                                              
  1.225000E+03  1.250000E+02 -4.725000E+03  6.149555E-08 -1.410922E-09 -1.056860E-09 -6.147028E-08  3.135008E-10 -7.159077E-12 -5.362850E-12 -3.133731E-10  0.000000E+00  0.000000E+00  0.000000E+00  0.000000E+00  0.000000E+00  0.000000E+00  0.000000E+00  0.000000E+00  1.313870E+00 -2.199873E-02 -1.584390E-02  1.313590E+00                                                                                                                                                                                                                                                                                                                                                                                                                                                                                              
  1.475000E+03  1.250000E+02 -4.725000E+03  6.291552E-08 -2.941812E-09 -8.948693E-10 -6.284033E-08  3.209213E-10 -1.493796E-11 -4.544254E-12 -3.205413E-10  0.000000E+00  0.000000E+00  0.000000E+00  0.000000E+00  0.000000E+00  0.000000E+00  0.000000E+00  0.000000E+00  1.296605E+00 -4.666751E-02 -1.347313E-02  1.295694E+00                                                                                                                                                                                                                                                                                                                                                                                                                                                                                              
  1.725000E+03  1.250000E+02 -4.725000E+03  6.535034E-08 -3.814598E-09 -7.515856E-10 -6.523458E-08  3.336677E-10 -1.939319E-11 -3.821743E-12 -3.330818E-10  0.000000E+00  0.000000E+00  0.000000E+00  0.000000E+00  0.000000E+00  0.000000E+00  0.000000E+00  0.000000E+00  1.262840E+00 -6.447741E-02 -1.163067E-02  1.261140E+00                                                                                                                                                                                                                                                                                                                                                                                                                                                                                              