Title="TOUGHREACT V3.30-OMP flowvector.tec: Liq & Gas Fluxes (kg/s/m^2), Pore Velocities (m/s), & Heat Fluxes (J/s/m2)"                                                                                                                                                                                                                                                                                                                                                                                                                                                                                                                                                                                                                                                                                                         
Variables= "X(m)"     "Y(m)"      "Z(m)"     "FluxLiq"   "FluxLiq_X"   "FluxLiq_Y"   "FluxLiq_Z"   "PorVelLiq"  "PorVelLiqX"  "PorVelLiqY"  "PorVelLiqZ"     "FluxGas"   "FluxGas_X"   "FluxGas_Y"   "FluxGas_Z"   "PorVelGas"  "PorVelGasX"  "PorVelGasY"  "PorVelGasZ"    "HeatFlux"  "HeatFlux_X"  "HeatFlux_Y"  "HeatFlux_Z"                                                                                                                                                                                                                                                                                                                                                                                                                                                                                                
Zone T= "3.15569000E+08 sec" I=     9 J=    10 K=    24 F=Point
  1.250000E+02  1.250000E+02 -5.425000E+03  6.407240E-09 -5.600044E-10  2.977712E-10 -6.375770E-09  3.503732E-11 -3.078890E-12  1.637683E-12 -3.486334E-11  0.000000E+00  0.000000E+00  0.000000E+00  0.000000E+00  0.000000E+00  0.000000E+00  0.000000E+00  0.000000E+00  1.445508E-01  3.939394E-03 -2.508970E-03  1.444753E-01                                                                                                                                                                                                                                                                                                                                                                                                                                                                                              
  3.750000E+02  1.250000E+02 -5.425000E+03  6.753742E-09 -1.292775E-09  2.875036E-10 -6.622621E-09  3.692052E-11 -7.105755E-12  1.580569E-12 -3.619578E-11  0.000000E+00  0.000000E+00  0.000000E+00  0.000000E+00  0.000000E+00  0.000000E+00  0.000000E+00  0.000000E+00  1.469459E-01  9.021180E-03 -2.595445E-03  1.466457E-01                                                                                                                                                                                                                                                                                                                                                                                                                                                                                              
  6.250000E+02  1.250000E+02 -5.425000E+03  6.980779E-09 -1.292292E-09  2.720301E-10 -6.854725E-09  3.813849E-11 -7.100261E-12  1.494716E-12 -3.744191E-11  0.000000E+00  0.000000E+00  0.000000E+00  0.000000E+00  0.000000E+00  0.000000E+00  0.000000E+00  0.000000E+00  1.492620E-01  8.638967E-03 -2.705790E-03  1.489872E-01                                                                                                                                                                                                                                                                                                                                                                                                                                                                                              
  8.750000E+02  1.250000E+02 -5.425000E+03  7.001603E-09 -8.066060E-10  2.606039E-10 -6.950102E-09  3.823166E-11 -4.430326E-12  1.431403E-12 -3.794711E-11  0.000000E+00  0.000000E+00  0.000000E+00  0.000000E+00  0.000000E+00  0.000000E+00  0.000000E+00  0.000000E+00  1.505750E-01  3.819690E-03 -2.793070E-03  1.505007E-01                                                                                                                                                                                                                                                                                                                                                                                                                                                                                              
  1.050000E+03  1.250000E+02 -5.425000E+03  6.842572E-09 -2.292485E-14  2.593628E-10 -6.837654E-09  3.735873E-11 -1.258970E-16  1.424544E-12 -3.733156E-11  0.000000E+00  0.000000E+00  0.000000E+00  0.000000E+00  0.000000E+00  0.000000E+00  0.000000E+00  0.000000E+00  1.510185E-01 -3.642694E-08 -2.805566E-03  1.509925E-01                                                                                                                                                                                                                                                                                                                                                                                                                                                                                              
  1.225000E+03  1.250000E+02 -5.425000E+03  7.001604E-09  8.065753E-10  2.606055E-10 -6.950106E-09  3.823166E-11  4.430157E-12  1.431412E-12 -3.794713E-11  0.000000E+00  0.000000E+00  0.000000E+00  0.000000E+00  0.000000E+00  0.000000E+00  0.000000E+00  0.000000E+00  1.505750E-01 -3.819773E-03 -2.793072E-03  1.505007E-01                                                                                                                                                                                                                                                                                                                                                                                                                                                                                              
  1.475000E+03  1.250000E+02 -5.425000E+03  6.980778E-09  1.292300E-09  2.720429E-10 -6.854722E-09  3.813848E-11  7.100304E-12  1.494786E-12 -3.744189E-11  0.000000E+00  0.000000E+00  0.000000E+00  0.000000E+00  0.000000E+00  0.000000E+00  0.000000E+00  0.000000E+00  1.492620E-01 -8.638931E-03 -2.705755E-03  1.489872E-01                                                                                                                                                                                                                                                                                                                                                                                                                                                                                              
  1.725000E+03  1.250000E+02 -5.425000E+03  6.753772E-09  1.292776E-09  2.874782E-10 -6.622652E-09  3.692068E-11  7.105757E-12  1.580429E-12 -3.619596E-11  0.000000E+00  0.000000E+00  0.000000E+00  0.000000E+00  0.000000E+00  0.000000E+00  0.000000E+00  0.000000E+00  1.469458E-01 -9.021098E-03 -2.595462E-03  1.466457E-01                                                                                                                                                                                                                                                                                                                                                                                                                                                                                              
  1.975000E+03  1.250000E+02 -5.425000E+03  6.407245E-09  5.599894E-10  2.977785E-10 -6.375777E-09  3.503735E-11  3.078808E-12  1.637724E-12 -3.486337E-11  0.000000E+00  0.000000E+00  0.000000E+00  0.000000E+00  0.000000E+00  0.000000E+00  0.000000E+00  0.000000E+00  1.445507E-01 -3.939394E-03 -2.508979E-03  1.444752E-01                                                                                                                                                                                                                                                                                                                                                                                                                                                                                              
  1.250000E+02  1.250000E+02 -5.225000E+03  2.828731E-08  2.002411E-10 -2.077636E-10 -2.828583E-08  1.522330E-10  1.089025E-12 -1.130427E-12 -1.522249E-10  0.000000E+00  0.000000E+00  0.000000E+00  0.000000E+00  0.000000E+00  0.000000E+00  0.000000E+00  0.000000E+00  5.130779E-01  6.371768E-03 -3.576638E-03  5.130259E-01                                                                                                                                                                                                                                                                                                                                                                                                                                                                                              
  3.750000E+02  1.250000E+02 -5.225000E+03  2.863438E-08  4.769632E-10 -2.337331E-10 -2.862945E-08  1.540110E-10  2.593068E-12 -1.271028E-12 -1.539840E-10  0.000000E+00  0.000000E+00  0.000000E+00  0.000000E+00  0.000000E+00  0.000000E+00  0.000000E+00  0.000000E+00  5.231897E-01  1.419379E-02 -3.737330E-03  5.229838E-01                                                                                                                                                                                                                                                                                                                                                                                                                                                                                              
  6.250000E+02  1.250000E+02 -5.225000E+03  2.891994E-08  4.705553E-10 -2.684468E-10 -2.891487E-08  1.554408E-10  2.556972E-12 -1.458822E-12 -1.554129E-10  0.000000E+00  0.000000E+00  0.000000E+00  0.000000E+00  0.000000E+00  0.000000E+00  0.000000E+00  0.000000E+00  5.328539E-01  1.319257E-02 -3.939135E-03  5.326760E-01                                                                                                                                                                                                                                                                                                                                                                                                                                                                                              
  8.750000E+02  1.250000E+02 -5.225000E+03  2.900266E-08  2.077214E-10 -2.950683E-10 -2.900041E-08  1.558106E-10  1.128352E-12 -1.602760E-12 -1.557983E-10  0.000000E+00  0.000000E+00  0.000000E+00  0.000000E+00  0.000000E+00  0.000000E+00  0.000000E+00  0.000000E+00  5.386724E-01  6.299467E-03 -4.115279E-03  5.386199E-01                                                                                                                                                                                                                                                                                                                                                                                                                                                                                              
  1.050000E+03  1.250000E+02 -5.225000E+03  2.887456E-08 -2.967396E-14 -2.987015E-10 -2.887302E-08  1.551028E-10 -1.611524E-16 -1.622405E-12 -1.550943E-10  0.000000E+00  0.000000E+00  0.000000E+00  0.000000E+00  0.000000E+00  0.000000E+00  0.000000E+00  0.000000E+00  5.397501E-01 -3.289808E-08 -4.147583E-03  5.397341E-01                                                                                                                                                                                                                                                                                                                                                                                                                                                                                              
  1.225000E+03  1.250000E+02 -5.225000E+03  2.900266E-08 -2.077564E-10 -2.950858E-10 -2.900041E-08  1.558106E-10 -1.128542E-12 -1.602855E-12 -1.557983E-10  0.000000E+00  0.000000E+00  0.000000E+00  0.000000E+00  0.000000E+00  0.000000E+00  0.000000E+00  0.000000E+00  5.386725E-01 -6.299514E-03 -4.115303E-03  5.386199E-01                                                                                                                                                                                                                                                                                                                                                                                                                                                                                              
  1.475000E+03  1.250000E+02 -5.225000E+03  2.891991E-08 -4.705644E-10 -2.684647E-10 -2.891483E-08  1.554406E-10 -2.557021E-12 -1.458920E-12 -1.554127E-10  0.000000E+00  0.000000E+00  0.000000E+00  0.000000E+00  0.000000E+00  0.000000E+00  0.000000E+00  0.000000E+00  5.328540E-01 -1.319255E-02 -3.939142E-03  5.326761E-01                                                                                                                                                                                                                                                                                                                                                                                                                                                                                              
  1.725000E+03  1.250000E+02 -5.225000E+03  2.863438E-08 -4.769640E-10 -2.337228E-10 -2.862946E-08  1.540110E-10 -2.593072E-12 -1.270971E-12 -1.539840E-10  0.000000E+00  0.000000E+00  0.000000E+00  0.000000E+00  0.000000E+00  0.000000E+00  0.000000E+00  0.000000E+00  5.231897E-01 -1.419380E-02 -3.737327E-03  5.229838E-01                                                                                                                                                                                                                                                                                                                                                                                                                                                                                              
  1.975000E+03  1.250000E+02 -5.225000E+03  2.828727E-08 -2.002382E-10 -2.077413E-10 -2.828580E-08  1.522328E-10 -1.089009E-12 -1.130305E-12 -1.522247E-10  0.000000E+00  0.000000E+00  0.000000E+00  0.000000E+00  0.000000E+00  0.000000E+00  0.000000E+00  0.000000E+00  5.130779E-01 -6.371813E-03 -3.576601E-03  5.130258E-01                                                                                                                                                                                                                                                                                                                                                                                                                                                                                              
  1.250000E+02  1.250000E+02 -4.975000E+03  5.557116E-08  1.401110E-09 -7.400334E-10 -5.554856E-08  2.918707E-10  7.386329E-12 -3.904161E-12 -2.917511E-10  0.000000E+00  0.000000E+00  0.000000E+00  0.000000E+00  0.000000E+00  0.000000E+00  0.000000E+00  0.000000E+00  9.195298E-01  1.471683E-02 -6.171485E-03  9.193913E-01                                                                                                                                                                                                                                                                                                                                                                                                                                                                                              
  3.750000E+02  1.250000E+02 -4.975000E+03  5.452174E-08  3.049232E-09 -8.150835E-10 -5.443030E-08  2.861380E-10  1.606570E-11 -4.295768E-12 -2.856543E-10  0.000000E+00  0.000000E+00  0.000000E+00  0.000000E+00  0.000000E+00  0.000000E+00  0.000000E+00  0.000000E+00  9.492307E-01  3.048726E-02 -6.678497E-03  9.487174E-01                                                                                                                                                                                                                                                                                                                                                                                                                                                                                              
  6.250000E+02  1.250000E+02 -4.975000E+03  5.368572E-08  2.773684E-09 -9.072280E-10 -5.360635E-08  2.815181E-10  1.460162E-11 -4.776318E-12 -2.810986E-10  0.000000E+00  0.000000E+00  0.000000E+00  0.000000E+00  0.000000E+00  0.000000E+00  0.000000E+00  0.000000E+00  9.709728E-01  2.594994E-02 -7.290395E-03  9.705986E-01                                                                                                                                                                                                                                                                                                                                                                                                                                                                                              
  8.750000E+02  1.250000E+02 -4.975000E+03  5.309693E-08  1.330836E-09 -9.900049E-10 -5.307101E-08  2.782811E-10  7.001918E-12 -5.208617E-12 -2.781442E-10  0.000000E+00  0.000000E+00  0.000000E+00  0.000000E+00  0.000000E+00  0.000000E+00  0.000000E+00  0.000000E+00  9.830256E-01  1.207023E-02 -7.929502E-03  9.829195E-01                                                                                                                                                                                                                                                                                                                                                                                                                                                                                              
  1.050000E+03  1.250000E+02 -4.975000E+03  5.291991E-08 -1.632751E-14 -1.010107E-09 -5.291027E-08  2.773350E-10 -8.587663E-17 -5.313935E-12 -2.772841E-10  0.000000E+00  0.000000E+00  0.000000E+00  0.000000E+00  0.000000E+00  0.000000E+00  0.000000E+00  0.000000E+00  9.855783E-01 -1.179002E-08 -8.130419E-03  9.855448E-01                                                                                                                                                                                                                                                                                                                                                                                                                                                                                              
  1.225000E+03  1.250000E+02 -4.975000E+03  5.309692E-08 -1.330831E-09 -9.900133E-10 -5.307101E-08  2.782810E-10 -7.001895E-12 -5.208661E-12 -2.781442E-10  0.000000E+00  0.000000E+00  0.000000E+00  0.000000E+00  0.000000E+00  0.000000E+00  0.000000E+00  0.000000E+00  9.830256E-01 -1.207023E-02 -7.929493E-03  9.829195E-01                                                                                                                                                                                                                                                                                                                                                                                                                                                                                              
  1.475000E+03  1.250000E+02 -4.975000E+03  5.368570E-08 -2.773664E-09 -9.072300E-10 -5.360633E-08  2.815180E-10 -1.460152E-11 -4.776328E-12 -2.810985E-10  0.000000E+00  0.000000E+00  0.000000E+00  0.000000E+00  0.000000E+00  0.000000E+00  0.000000E+00  0.000000E+00  9.709728E-01 -2.594992E-02 -7.290381E-03  9.705986E-01                                                                                                                                                                                                                                                                                                                                                                                                                                                                                              
  1.725000E+03  1.250000E+02 -4.975000E+03  5.452172E-08 -3.049225E-09 -8.151034E-10 -5.443028E-08  2.861379E-10 -1.606566E-11 -4.295872E-12 -2.856542E-10  0.000000E+00  0.000000E+00  0.000000E+00  0.000000E+00  0.000000E+00  0.000000E+00  0.000000E+00  0.000000E+00  9.492307E-01 -3.048726E-02 -6.678515E-03  9.487174E-01                                                                                                                                                                                                                                                                                                                                                                                                                                                                                              
  1.975000E+03  1.250000E+02 -4.975000E+03  5.557113E-08 -1.401103E-09 -7.400482E-10 -5.554854E-08  2.918706E-10 -7.386291E-12 -3.904239E-12 -2.917510E-10  0.000000E+00  0.000000E+00  0.000000E+00  0.000000E+00  0.000000E+00  0.000000E+00  0.000000E+00  0.000000E+00  9.195299E-01 -1.471683E-02 -6.171488E-03  9.193914E-01                                                                                                                                                                                                                                                                                                                                                                                                                                                                                              
  1.250000E+02  1.250000E+02 -4.725000E+03  7.312107E-08  2.092043E-09 -6.453955E-10 -7.308828E-08  3.738029E-10  1.064477E-11 -3.287664E-12 -3.736369E-10  0.000000E+00  0.000000E+00  0.000000E+00  0.000000E+00  0.000000E+00  0.000000E+00  0.000000E+00  0.000000E+00  1.182539E+00  3.530184E-02 -9.975041E-03  1.181970E+00                                                                                                                                                                                                                                                                                                                                                                                                                                                                                              
  3.750000E+02  1.250000E+02 -4.725000E+03  6.813915E-08  3.981401E-09 -7.817261E-10 -6.801824E-08  3.479529E-10  2.024355E-11 -3.975463E-12 -3.473408E-10  0.000000E+00  0.000000E+00  0.000000E+00  0.000000E+00  0.000000E+00  0.000000E+00  0.000000E+00  0.000000E+00  1.266621E+00  6.463945E-02 -1.165732E-02  1.264916E+00                                                                                                                                                                                                                                                                                                                                                                                                                                                                                              
  6.250000E+02  1.250000E+02 -4.725000E+03  6.552322E-08  3.062980E-09 -9.300711E-10 -6.544498E-08  3.342657E-10  1.555496E-11 -4.723537E-12 -3.338701E-10  0.000000E+00  0.000000E+00  0.000000E+00  0.000000E+00  0.000000E+00  0.000000E+00  0.000000E+00  0.000000E+00  1.300542E+00  4.677273E-02 -1.350396E-02  1.299630E+00                                                                                                                                                                                                                                                                                                                                                                                                                                                                                              
  8.750000E+02  1.250000E+02 -4.725000E+03  6.400146E-08  1.468129E-09 -1.098436E-09 -6.397519E-08  3.263170E-10  7.450150E-12 -5.574424E-12 -3.261843E-10  0.000000E+00  0.000000E+00  0.000000E+00  0.000000E+00  0.000000E+00  0.000000E+00  0.000000E+00  0.000000E+00  1.317894E+00  2.204454E-02 -1.588023E-02  1.317614E+00                                                                                                                                                                                                                                                                                                                                                                                                                                                                                              
  1.050000E+03  1.250000E+02 -4.725000E+03  6.298305E-08 -6.919212E-15 -1.201966E-09 -6.297158E-08  3.211290E-10 -3.509957E-17 -6.099142E-12 -3.210711E-10  0.000000E+00  0.000000E+00  0.000000E+00  0.000000E+00  0.000000E+00  0.000000E+00  0.000000E+00  0.000000E+00  1.333425E+00 -3.353092E-09 -1.753193E-02  1.333310E+00                                                                                                                                                                                                                                                                                                                                                                                                                                                                                              
  1.225000E+03  1.250000E+02 -4.725000E+03  6.400145E-08 -1.468136E-09 -1.098436E-09 -6.397518E-08  3.263170E-10 -7.450187E-12 -5.574423E-12 -3.261843E-10  0.000000E+00  0.000000E+00  0.000000E+00  0.000000E+00  0.000000E+00  0.000000E+00  0.000000E+00  0.000000E+00  1.317894E+00 -2.204455E-02 -1.588022E-02  1.317614E+00                                                                                                                                                                                                                                                                                                                                                                                                                                                                                              
  1.475000E+03  1.250000E+02 -4.725000E+03  6.552323E-08 -3.062980E-09 -9.300729E-10 -6.544499E-08  3.342657E-10 -1.555496E-11 -4.723546E-12 -3.338702E-10  0.000000E+00  0.000000E+00  0.000000E+00  0.000000E+00  0.000000E+00  0.000000E+00  0.000000E+00  0.000000E+00  1.300542E+00 -4.677272E-02 -1.350395E-02  1.299630E+00                                                                                                                                                                                                                                                                                                                                                                                                                                                                                              
  1.725000E+03  1.250000E+02 -4.725000E+03  6.813915E-08 -3.981399E-09 -7.817240E-10 -6.801824E-08  3.479530E-10 -2.024354E-11 -3.975452E-12 -3.473408E-10  0.000000E+00  0.000000E+00  0.000000E+00  0.000000E+00  0.000000E+00  0.000000E+00  0.000000E+00  0.000000E+00  1.266620E+00 -6.463942E-02 -1.165732E-02  1.264916E+00                                                                                                                                                                                                                                                                                                                                                                                                                                                                                              