Title="TOUGHREACT V3.30-OMP flowvector.tec: Liq & Gas Fluxes (kg/s/m^2), Pore Velocities (m/s), & Heat Fluxes (J/s/m2)"                                                                                                                                                                                                                                                                                                                                                                                                                                                                                                                                                                                                                                                                                                         
Variables= "X(m)"     "Y(m)"      "Z(m)"     "FluxLiq"   "FluxLiq_X"   "FluxLiq_Y"   "FluxLiq_Z"   "PorVelLiq"  "PorVelLiqX"  "PorVelLiqY"  "PorVelLiqZ"     "FluxGas"   "FluxGas_X"   "FluxGas_Y"   "FluxGas_Z"   "PorVelGas"  "PorVelGasX"  "PorVelGasY"  "PorVelGasZ"    "HeatFlux"  "HeatFlux_X"  "HeatFlux_Y"  "HeatFlux_Z"                                                                                                                                                                                                                                                                                                                                                                                                                                                                                                
Zone T= "1.00000000E+06 sec" I=     9 J=    10 K=    24 F=Point
  1.250000E+02  1.250000E+02 -5.425000E+03  9.231678E-09 -5.389182E-10  2.929959E-10 -9.211276E-09  5.049018E-11 -2.963433E-12  1.611677E-12 -5.037736E-11  0.000000E+00  0.000000E+00  0.000000E+00  0.000000E+00  0.000000E+00  0.000000E+00  0.000000E+00  0.000000E+00  1.415187E-01  3.948476E-03 -2.504684E-03  1.414415E-01                                                                                                                                                                                                                                                                                                                                                                                                                                                                                              
  3.750000E+02  1.250000E+02 -5.425000E+03  9.534243E-09 -1.229177E-09  2.825014E-10 -9.450455E-09  5.212390E-11 -6.757286E-12  1.553317E-12 -5.166069E-11  0.000000E+00  0.000000E+00  0.000000E+00  0.000000E+00  0.000000E+00  0.000000E+00  0.000000E+00  0.000000E+00  1.439357E-01  9.051841E-03 -2.591417E-03  1.436274E-01                                                                                                                                                                                                                                                                                                                                                                                                                                                                                              
  6.250000E+02  1.250000E+02 -5.425000E+03  9.754985E-09 -1.171761E-09  2.667782E-10 -9.680679E-09  5.329825E-11 -6.439127E-12  1.466094E-12 -5.288753E-11  0.000000E+00  0.000000E+00  0.000000E+00  0.000000E+00  0.000000E+00  0.000000E+00  0.000000E+00  0.000000E+00  1.462670E-01  8.712323E-03 -2.702046E-03  1.459823E-01                                                                                                                                                                                                                                                                                                                                                                                                                                                                                              
  8.750000E+02  1.250000E+02 -5.425000E+03  9.827907E-09 -5.863382E-10  2.550987E-10 -9.807083E-09  5.367096E-11 -3.221094E-12  1.401391E-12 -5.355588E-11  0.000000E+00  0.000000E+00  0.000000E+00  0.000000E+00  0.000000E+00  0.000000E+00  0.000000E+00  0.000000E+00  1.475675E-01  4.224500E-03 -2.789587E-03  1.474807E-01                                                                                                                                                                                                                                                                                                                                                                                                                                                                                              
  1.050000E+03  1.250000E+02 -5.425000E+03  9.808302E-09  3.189528E-14  2.537321E-10 -9.805019E-09  5.356002E-11  1.751888E-16  1.393820E-12 -5.354188E-11  0.000000E+00  0.000000E+00  0.000000E+00  0.000000E+00  0.000000E+00  0.000000E+00  0.000000E+00  0.000000E+00  1.477077E-01  1.334630E-09 -2.802198E-03  1.476811E-01                                                                                                                                                                                                                                                                                                                                                                                                                                                                                              
  1.225000E+03  1.250000E+02 -5.425000E+03  9.827943E-09  5.863141E-10  2.550552E-10 -9.807122E-09  5.367115E-11  3.220961E-12  1.401152E-12 -5.355609E-11  0.000000E+00  0.000000E+00  0.000000E+00  0.000000E+00  0.000000E+00  0.000000E+00  0.000000E+00  0.000000E+00  1.475675E-01 -4.224575E-03 -2.789623E-03  1.474807E-01                                                                                                                                                                                                                                                                                                                                                                                                                                                                                              
  1.475000E+03  1.250000E+02 -5.425000E+03  9.754970E-09  1.171742E-09  2.668026E-10 -9.680665E-09  5.329816E-11  6.439023E-12  1.466228E-12 -5.288746E-11  0.000000E+00  0.000000E+00  0.000000E+00  0.000000E+00  0.000000E+00  0.000000E+00  0.000000E+00  0.000000E+00  1.462671E-01 -8.712305E-03 -2.702013E-03  1.459824E-01                                                                                                                                                                                                                                                                                                                                                                                                                                                                                              
  1.725000E+03  1.250000E+02 -5.425000E+03  9.534271E-09  1.229200E-09  2.824918E-10 -9.450481E-09  5.212406E-11  6.757412E-12  1.553264E-12 -5.166084E-11  0.000000E+00  0.000000E+00  0.000000E+00  0.000000E+00  0.000000E+00  0.000000E+00  0.000000E+00  0.000000E+00  1.439357E-01 -9.051748E-03 -2.591415E-03  1.436274E-01                                                                                                                                                                                                                                                                                                                                                                                                                                                                                              
  1.975000E+03  1.250000E+02 -5.425000E+03  9.231684E-09  5.389042E-10  2.929992E-10 -9.211282E-09  5.049021E-11  2.963355E-12  1.611696E-12 -5.037740E-11  0.000000E+00  0.000000E+00  0.000000E+00  0.000000E+00  0.000000E+00  0.000000E+00  0.000000E+00  0.000000E+00  1.415187E-01 -3.948477E-03 -2.504694E-03  1.414414E-01                                                                                                                                                                                                                                                                                                                                                                                                                                                                                              
  1.250000E+02  1.250000E+02 -5.225000E+03  3.298589E-08  2.193636E-10 -2.116977E-10 -3.298448E-08  1.777490E-10  1.193281E-12 -1.152081E-12 -1.777413E-10  0.000000E+00  0.000000E+00  0.000000E+00  0.000000E+00  0.000000E+00  0.000000E+00  0.000000E+00  0.000000E+00  5.093814E-01  6.381257E-03 -3.573236E-03  5.093289E-01                                                                                                                                                                                                                                                                                                                                                                                                                                                                                              
  3.750000E+02  1.250000E+02 -5.225000E+03  3.330662E-08  5.288599E-10 -2.379811E-10 -3.330157E-08  1.793702E-10  2.875822E-12 -1.294407E-12 -1.793425E-10  0.000000E+00  0.000000E+00  0.000000E+00  0.000000E+00  0.000000E+00  0.000000E+00  0.000000E+00  0.000000E+00  5.195410E-01  1.421914E-02 -3.734306E-03  5.193329E-01                                                                                                                                                                                                                                                                                                                                                                                                                                                                                              
  6.250000E+02  1.250000E+02 -5.225000E+03  3.357738E-08  5.456830E-10 -2.730969E-10 -3.357184E-08  1.807030E-10  2.965816E-12 -1.484412E-12 -1.806726E-10  0.000000E+00  0.000000E+00  0.000000E+00  0.000000E+00  0.000000E+00  0.000000E+00  0.000000E+00  0.000000E+00  5.292468E-01  1.323207E-02 -3.936573E-03  5.290667E-01                                                                                                                                                                                                                                                                                                                                                                                                                                                                                              
  8.750000E+02  1.250000E+02 -5.225000E+03  3.369354E-08  2.783256E-10 -3.001370E-10 -3.369105E-08  1.812433E-10  1.512171E-12 -1.630644E-12 -1.812296E-10  0.000000E+00  0.000000E+00  0.000000E+00  0.000000E+00  0.000000E+00  0.000000E+00  0.000000E+00  0.000000E+00  5.350608E-01  6.343319E-03 -4.113134E-03  5.350074E-01                                                                                                                                                                                                                                                                                                                                                                                                                                                                                              
  1.050000E+03  1.250000E+02 -5.225000E+03  3.368551E-08 -1.637434E-14 -3.038132E-10 -3.368414E-08  1.811880E-10 -8.894440E-17 -1.650525E-12 -1.811804E-10  0.000000E+00  0.000000E+00  0.000000E+00  0.000000E+00  0.000000E+00  0.000000E+00  0.000000E+00  0.000000E+00  5.358417E-01 -9.158596E-09 -4.145487E-03  5.358256E-01                                                                                                                                                                                                                                                                                                                                                                                                                                                                                              
  1.225000E+03  1.250000E+02 -5.225000E+03  3.369358E-08 -2.783577E-10 -3.001315E-10 -3.369109E-08  1.812435E-10 -1.512346E-12 -1.630614E-12 -1.812298E-10  0.000000E+00  0.000000E+00  0.000000E+00  0.000000E+00  0.000000E+00  0.000000E+00  0.000000E+00  0.000000E+00  5.350608E-01 -6.343361E-03 -4.113139E-03  5.350074E-01                                                                                                                                                                                                                                                                                                                                                                                                                                                                                              
  1.475000E+03  1.250000E+02 -5.225000E+03  3.357734E-08 -5.456867E-10 -2.730713E-10 -3.357180E-08  1.807028E-10 -2.965836E-12 -1.484273E-12 -1.806724E-10  0.000000E+00  0.000000E+00  0.000000E+00  0.000000E+00  0.000000E+00  0.000000E+00  0.000000E+00  0.000000E+00  5.292469E-01 -1.323205E-02 -3.936545E-03  5.290668E-01                                                                                                                                                                                                                                                                                                                                                                                                                                                                                              
  1.725000E+03  1.250000E+02 -5.225000E+03  3.330666E-08 -5.288475E-10 -2.379834E-10 -3.330161E-08  1.793704E-10 -2.875754E-12 -1.294420E-12 -1.793427E-10  0.000000E+00  0.000000E+00  0.000000E+00  0.000000E+00  0.000000E+00  0.000000E+00  0.000000E+00  0.000000E+00  5.195409E-01 -1.421914E-02 -3.734310E-03  5.193329E-01                                                                                                                                                                                                                                                                                                                                                                                                                                                                                              
  1.975000E+03  1.250000E+02 -5.225000E+03  3.298592E-08 -2.193632E-10 -2.116778E-10 -3.298451E-08  1.777492E-10 -1.193279E-12 -1.151972E-12 -1.777414E-10  0.000000E+00  0.000000E+00  0.000000E+00  0.000000E+00  0.000000E+00  0.000000E+00  0.000000E+00  0.000000E+00  5.093814E-01 -6.381299E-03 -3.573203E-03  5.093289E-01                                                                                                                                                                                                                                                                                                                                                                                                                                                                                              
  1.250000E+02  1.250000E+02 -4.975000E+03  5.838517E-08  1.418984E-09 -7.437604E-10 -5.836318E-08  3.068197E-10  7.481630E-12 -3.924391E-12 -3.067033E-10  0.000000E+00  0.000000E+00  0.000000E+00  0.000000E+00  0.000000E+00  0.000000E+00  0.000000E+00  0.000000E+00  9.193669E-01  1.473282E-02 -6.172426E-03  9.192282E-01                                                                                                                                                                                                                                                                                                                                                                                                                                                                                              
  3.750000E+02  1.250000E+02 -4.975000E+03  5.727199E-08  3.088465E-09 -8.193871E-10 -5.718279E-08  3.007379E-10  1.627473E-11 -4.319068E-12 -3.002662E-10  0.000000E+00  0.000000E+00  0.000000E+00  0.000000E+00  0.000000E+00  0.000000E+00  0.000000E+00  0.000000E+00  9.491505E-01  3.051809E-02 -6.680181E-03  9.486363E-01                                                                                                                                                                                                                                                                                                                                                                                                                                                                                              
  6.250000E+02  1.250000E+02 -4.975000E+03  5.639289E-08  2.813571E-09 -9.121983E-10 -5.631527E-08  2.958779E-10  1.481370E-11 -4.803168E-12 -2.954678E-10  0.000000E+00  0.000000E+00  0.000000E+00  0.000000E+00  0.000000E+00  0.000000E+00  0.000000E+00  0.000000E+00  9.709589E-01  2.597528E-02 -7.292869E-03  9.705840E-01                                                                                                                                                                                                                                                                                                                                                                                                                                                                                              
  8.750000E+02  1.250000E+02 -4.975000E+03  5.579260E-08  1.354497E-09 -9.957824E-10 -5.576727E-08  2.925728E-10  7.127414E-12 -5.239756E-12 -2.924391E-10  0.000000E+00  0.000000E+00  0.000000E+00  0.000000E+00  0.000000E+00  0.000000E+00  0.000000E+00  0.000000E+00  9.830449E-01  1.208359E-02 -7.932824E-03  9.829386E-01                                                                                                                                                                                                                                                                                                                                                                                                                                                                                              
  1.050000E+03  1.250000E+02 -4.975000E+03  5.562270E-08 -1.629203E-14 -1.016176E-09 -5.561342E-08  2.916640E-10 -8.570213E-17 -5.346619E-12 -2.916150E-10  0.000000E+00  0.000000E+00  0.000000E+00  0.000000E+00  0.000000E+00  0.000000E+00  0.000000E+00  0.000000E+00  9.855966E-01 -1.078657E-08 -8.134064E-03  9.855631E-01                                                                                                                                                                                                                                                                                                                                                                                                                                                                                              
  1.225000E+03  1.250000E+02 -4.975000E+03  5.579260E-08 -1.354500E-09 -9.957685E-10 -5.576726E-08  2.925728E-10 -7.127432E-12 -5.239682E-12 -2.924390E-10  0.000000E+00  0.000000E+00  0.000000E+00  0.000000E+00  0.000000E+00  0.000000E+00  0.000000E+00  0.000000E+00  9.830449E-01 -1.208359E-02 -7.932799E-03  9.829386E-01                                                                                                                                                                                                                                                                                                                                                                                                                                                                                              
  1.475000E+03  1.250000E+02 -4.975000E+03  5.639287E-08 -2.813581E-09 -9.122015E-10 -5.631525E-08  2.958778E-10 -1.481375E-11 -4.803185E-12 -2.954677E-10  0.000000E+00  0.000000E+00  0.000000E+00  0.000000E+00  0.000000E+00  0.000000E+00  0.000000E+00  0.000000E+00  9.709589E-01 -2.597529E-02 -7.292862E-03  9.705840E-01                                                                                                                                                                                                                                                                                                                                                                                                                                                                                              
  1.725000E+03  1.250000E+02 -4.975000E+03  5.727199E-08 -3.088503E-09 -8.193796E-10 -5.718279E-08  3.007379E-10 -1.627493E-11 -4.319028E-12 -3.002662E-10  0.000000E+00  0.000000E+00  0.000000E+00  0.000000E+00  0.000000E+00  0.000000E+00  0.000000E+00  0.000000E+00  9.491505E-01 -3.051812E-02 -6.680172E-03  9.486363E-01                                                                                                                                                                                                                                                                                                                                                                                                                                                                                              
  1.975000E+03  1.250000E+02 -4.975000E+03  5.838517E-08 -1.418999E-09 -7.437264E-10 -5.836319E-08  3.068197E-10 -7.481710E-12 -3.924212E-12 -3.067034E-10  0.000000E+00  0.000000E+00  0.000000E+00  0.000000E+00  0.000000E+00  0.000000E+00  0.000000E+00  0.000000E+00  9.193670E-01 -1.473282E-02 -6.172399E-03  9.192282E-01                                                                                                                                                                                                                                                                                                                                                                                                                                                                                              
  1.250000E+02  1.250000E+02 -4.725000E+03  7.458250E-08  2.106511E-09 -6.478774E-10 -7.454993E-08  3.813341E-10  1.071894E-11 -3.300484E-12 -3.811692E-10  0.000000E+00  0.000000E+00  0.000000E+00  0.000000E+00  0.000000E+00  0.000000E+00  0.000000E+00  0.000000E+00  1.184080E+00  3.533632E-02 -9.982452E-03  1.183511E+00                                                                                                                                                                                                                                                                                                                                                                                                                                                                                              
  3.750000E+02  1.250000E+02 -4.725000E+03  6.947763E-08  4.005641E-09 -7.849077E-10 -6.935762E-08  3.548453E-10  2.036784E-11 -3.991846E-12 -3.542378E-10  0.000000E+00  0.000000E+00  0.000000E+00  0.000000E+00  0.000000E+00  0.000000E+00  0.000000E+00  0.000000E+00  1.268302E+00  6.469783E-02 -1.166632E-02  1.266597E+00                                                                                                                                                                                                                                                                                                                                                                                                                                                                                              
  6.250000E+02  1.250000E+02 -4.725000E+03  6.679051E-08  3.078679E-09 -9.339173E-10 -6.671298E-08  3.407862E-10  1.563544E-11 -4.743301E-12 -3.403943E-10  0.000000E+00  0.000000E+00  0.000000E+00  0.000000E+00  0.000000E+00  0.000000E+00  0.000000E+00  0.000000E+00  1.302293E+00  4.680925E-02 -1.351453E-02  1.301382E+00                                                                                                                                                                                                                                                                                                                                                                                                                                                                                              
  8.750000E+02  1.250000E+02 -4.725000E+03  6.523152E-08  1.476165E-09 -1.103299E-09 -6.520548E-08  3.326430E-10  7.491284E-12 -5.599372E-12 -3.325115E-10  0.000000E+00  0.000000E+00  0.000000E+00  0.000000E+00  0.000000E+00  0.000000E+00  0.000000E+00  0.000000E+00  1.319684E+00  2.206036E-02 -1.589286E-02  1.319404E+00                                                                                                                                                                                                                                                                                                                                                                                                                                                                                              
  1.050000E+03  1.250000E+02 -4.725000E+03  6.419764E-08  3.310051E-15 -1.207847E-09 -6.418627E-08  3.273757E-10  1.679191E-17 -6.129275E-12 -3.273183E-10  0.000000E+00  0.000000E+00  0.000000E+00  0.000000E+00  0.000000E+00  0.000000E+00  0.000000E+00  0.000000E+00  1.335231E+00 -6.509049E-10 -1.754637E-02  1.335115E+00                                                                                                                                                                                                                                                                                                                                                                                                                                                                                              
  1.225000E+03  1.250000E+02 -4.725000E+03  6.523151E-08 -1.476168E-09 -1.103304E-09 -6.520548E-08  3.326430E-10 -7.491302E-12 -5.599395E-12 -3.325115E-10  0.000000E+00  0.000000E+00  0.000000E+00  0.000000E+00  0.000000E+00  0.000000E+00  0.000000E+00  0.000000E+00  1.319684E+00 -2.206038E-02 -1.589286E-02  1.319404E+00                                                                                                                                                                                                                                                                                                                                                                                                                                                                                              
  1.475000E+03  1.250000E+02 -4.725000E+03  6.679051E-08 -3.078682E-09 -9.339200E-10 -6.671298E-08  3.407862E-10 -1.563546E-11 -4.743315E-12 -3.403943E-10  0.000000E+00  0.000000E+00  0.000000E+00  0.000000E+00  0.000000E+00  0.000000E+00  0.000000E+00  0.000000E+00  1.302293E+00 -4.680924E-02 -1.351451E-02  1.301382E+00                                                                                                                                                                                                                                                                                                                                                                                                                                                                                              
  1.725000E+03  1.250000E+02 -4.725000E+03  6.947761E-08 -4.005639E-09 -7.849181E-10 -6.935761E-08  3.548452E-10 -2.036783E-11 -3.991898E-12 -3.542377E-10  0.000000E+00  0.000000E+00  0.000000E+00  0.000000E+00  0.000000E+00  0.000000E+00  0.000000E+00  0.000000E+00  1.268302E+00 -6.469781E-02 -1.166633E-02  1.266597E+00                                                                                                                                                                                                                                                                                                                                                                                                                                                                                              