Title="TOUGHREACT V3.30-OMP flowvector.tec: Liq & Gas Fluxes (kg/s/m^2), Pore Velocities (m/s), & Heat Fluxes (J/s/m2)"                                                                                                                                                                                                                                                                                                                                                                                                                                                                                                                                                                                                                                                                                                         
Variables= "X(m)"     "Y(m)"      "Z(m)"     "FluxLiq"   "FluxLiq_X"   "FluxLiq_Y"   "FluxLiq_Z"   "PorVelLiq"  "PorVelLiqX"  "PorVelLiqY"  "PorVelLiqZ"     "FluxGas"   "FluxGas_X"   "FluxGas_Y"   "FluxGas_Z"   "PorVelGas"  "PorVelGasX"  "PorVelGasY"  "PorVelGasZ"    "HeatFlux"  "HeatFlux_X"  "HeatFlux_Y"  "HeatFlux_Z"                                                                                                                                                                                                                                                                                                                                                                                                                                                                                                
Zone T= "5.00000000E-02 sec" I=     9 J=    10 K=    24 F=Point
  1.250000E+02  1.250000E+02 -5.425000E+03  9.324052E-09 -5.390527E-10  2.930740E-10 -9.303842E-09  5.099540E-11 -2.964174E-12  1.612108E-12 -5.088364E-11  0.000000E+00  0.000000E+00  0.000000E+00  0.000000E+00  0.000000E+00  0.000000E+00  0.000000E+00  0.000000E+00  1.414494E-01  3.948351E-03 -2.504599E-03  1.413721E-01                                                                                                                                                                                                                                                                                                                                                                                                                                                                                              
  3.750000E+02  1.250000E+02 -5.425000E+03  9.625586E-09 -1.229485E-09  2.825809E-10 -9.542559E-09  5.262321E-11 -6.758982E-12  1.553755E-12 -5.216421E-11  0.000000E+00  0.000000E+00  0.000000E+00  0.000000E+00  0.000000E+00  0.000000E+00  0.000000E+00  0.000000E+00  1.438671E-01  9.051550E-03 -2.591331E-03  1.435587E-01                                                                                                                                                                                                                                                                                                                                                                                                                                                                                              
  6.250000E+02  1.250000E+02 -5.425000E+03  9.845839E-09 -1.171898E-09  2.668609E-10 -9.772205E-09  5.379459E-11 -6.439882E-12  1.466549E-12 -5.338759E-11  0.000000E+00  0.000000E+00  0.000000E+00  0.000000E+00  0.000000E+00  0.000000E+00  0.000000E+00  0.000000E+00  1.461991E-01  8.712157E-03 -2.701959E-03  1.459143E-01                                                                                                                                                                                                                                                                                                                                                                                                                                                                                              
  8.750000E+02  1.250000E+02 -5.425000E+03  9.917807E-09 -5.653722E-10  2.551863E-10 -9.898391E-09  5.416184E-11 -3.105938E-12  1.401873E-12 -5.405453E-11  0.000000E+00  0.000000E+00  0.000000E+00  0.000000E+00  0.000000E+00  0.000000E+00  0.000000E+00  0.000000E+00  1.475004E-01  4.241192E-03 -2.789496E-03  1.474130E-01                                                                                                                                                                                                                                                                                                                                                                                                                                                                                              
  1.050000E+03  1.250000E+02 -5.425000E+03  9.916610E-09  3.614175E-14  2.538345E-10 -9.913361E-09  5.415148E-11  1.985131E-16  1.394384E-12 -5.413352E-11  0.000000E+00  0.000000E+00  0.000000E+00  0.000000E+00  0.000000E+00  0.000000E+00  0.000000E+00  0.000000E+00  1.476273E-01  4.572388E-09 -2.802095E-03  1.476007E-01                                                                                                                                                                                                                                                                                                                                                                                                                                                                                              
  1.225000E+03  1.250000E+02 -5.425000E+03  9.917847E-09  5.653474E-10  2.551387E-10 -9.898433E-09  5.416205E-11  3.105801E-12  1.401611E-12 -5.405476E-11  0.000000E+00  0.000000E+00  0.000000E+00  0.000000E+00  0.000000E+00  0.000000E+00  0.000000E+00  0.000000E+00  1.475004E-01 -4.241268E-03 -2.789536E-03  1.474130E-01                                                                                                                                                                                                                                                                                                                                                                                                                                                                                              
  1.475000E+03  1.250000E+02 -5.425000E+03  9.845821E-09  1.171876E-09  2.668871E-10 -9.772189E-09  5.379449E-11  6.439760E-12  1.466693E-12 -5.338750E-11  0.000000E+00  0.000000E+00  0.000000E+00  0.000000E+00  0.000000E+00  0.000000E+00  0.000000E+00  0.000000E+00  1.461991E-01 -8.712142E-03 -2.701924E-03  1.459143E-01                                                                                                                                                                                                                                                                                                                                                                                                                                                                                              
  1.725000E+03  1.250000E+02 -5.425000E+03  9.625613E-09  1.229510E-09  2.825730E-10 -9.542583E-09  5.262336E-11  6.759120E-12  1.553712E-12 -5.216434E-11  0.000000E+00  0.000000E+00  0.000000E+00  0.000000E+00  0.000000E+00  0.000000E+00  0.000000E+00  0.000000E+00  1.438671E-01 -9.051455E-03 -2.591328E-03  1.435587E-01                                                                                                                                                                                                                                                                                                                                                                                                                                                                                              
  1.975000E+03  1.250000E+02 -5.425000E+03  9.324057E-09  5.390390E-10  2.930778E-10 -9.303848E-09  5.099542E-11  2.964099E-12  1.612129E-12 -5.088368E-11  0.000000E+00  0.000000E+00  0.000000E+00  0.000000E+00  0.000000E+00  0.000000E+00  0.000000E+00  0.000000E+00  1.414494E-01 -3.948352E-03 -2.504608E-03  1.413721E-01                                                                                                                                                                                                                                                                                                                                                                                                                                                                                              
  1.250000E+02  1.250000E+02 -5.225000E+03  3.307912E-08  2.193651E-10 -2.117047E-10 -3.307771E-08  1.782589E-10  1.193290E-12 -1.152119E-12 -1.782512E-10  0.000000E+00  0.000000E+00  0.000000E+00  0.000000E+00  0.000000E+00  0.000000E+00  0.000000E+00  0.000000E+00  5.093129E-01  6.381245E-03 -3.573221E-03  5.092604E-01                                                                                                                                                                                                                                                                                                                                                                                                                                                                                              
  3.750000E+02  1.250000E+02 -5.225000E+03  3.339937E-08  5.288641E-10 -2.379888E-10 -3.339433E-08  1.798772E-10  2.875846E-12 -1.294449E-12 -1.798496E-10  0.000000E+00  0.000000E+00  0.000000E+00  0.000000E+00  0.000000E+00  0.000000E+00  0.000000E+00  0.000000E+00  5.194731E-01  1.421911E-02 -3.734292E-03  5.192650E-01                                                                                                                                                                                                                                                                                                                                                                                                                                                                                              
  6.250000E+02  1.250000E+02 -5.225000E+03  3.366954E-08  5.456912E-10 -2.731043E-10 -3.366401E-08  1.812065E-10  2.965862E-12 -1.484454E-12 -1.811761E-10  0.000000E+00  0.000000E+00  0.000000E+00  0.000000E+00  0.000000E+00  0.000000E+00  0.000000E+00  0.000000E+00  5.291797E-01  1.323203E-02 -3.936560E-03  5.289996E-01                                                                                                                                                                                                                                                                                                                                                                                                                                                                                              
  8.750000E+02  1.250000E+02 -5.225000E+03  3.378548E-08  2.784999E-10 -3.001455E-10 -3.378300E-08  1.817454E-10  1.513119E-12 -1.630692E-12 -1.817317E-10  0.000000E+00  0.000000E+00  0.000000E+00  0.000000E+00  0.000000E+00  0.000000E+00  0.000000E+00  0.000000E+00  5.349941E-01  6.343419E-03 -4.113122E-03  5.349407E-01                                                                                                                                                                                                                                                                                                                                                                                                                                                                                              
  1.050000E+03  1.250000E+02 -5.225000E+03  3.379457E-08 -1.647750E-14 -3.038191E-10 -3.379320E-08  1.817835E-10 -8.950479E-17 -1.650558E-12 -1.817760E-10  0.000000E+00  0.000000E+00  0.000000E+00  0.000000E+00  0.000000E+00  0.000000E+00  0.000000E+00  0.000000E+00  5.357621E-01 -9.203876E-09 -4.145473E-03  5.357461E-01                                                                                                                                                                                                                                                                                                                                                                                                                                                                                              
  1.225000E+03  1.250000E+02 -5.225000E+03  3.378552E-08 -2.785319E-10 -3.001403E-10 -3.378304E-08  1.817456E-10 -1.513293E-12 -1.630663E-12 -1.817320E-10  0.000000E+00  0.000000E+00  0.000000E+00  0.000000E+00  0.000000E+00  0.000000E+00  0.000000E+00  0.000000E+00  5.349941E-01 -6.343460E-03 -4.113127E-03  5.349407E-01                                                                                                                                                                                                                                                                                                                                                                                                                                                                                              
  1.475000E+03  1.250000E+02 -5.225000E+03  3.366950E-08 -5.456932E-10 -2.730768E-10 -3.366397E-08  1.812063E-10 -2.965873E-12 -1.484304E-12 -1.811759E-10  0.000000E+00  0.000000E+00  0.000000E+00  0.000000E+00  0.000000E+00  0.000000E+00  0.000000E+00  0.000000E+00  5.291797E-01 -1.323201E-02 -3.936530E-03  5.289996E-01                                                                                                                                                                                                                                                                                                                                                                                                                                                                                              
  1.725000E+03  1.250000E+02 -5.225000E+03  3.339940E-08 -5.288516E-10 -2.379922E-10 -3.339437E-08  1.798774E-10 -2.875778E-12 -1.294468E-12 -1.798498E-10  0.000000E+00  0.000000E+00  0.000000E+00  0.000000E+00  0.000000E+00  0.000000E+00  0.000000E+00  0.000000E+00  5.194730E-01 -1.421911E-02 -3.734297E-03  5.192650E-01                                                                                                                                                                                                                                                                                                                                                                                                                                                                                              
  1.975000E+03  1.250000E+02 -5.225000E+03  3.307915E-08 -2.193661E-10 -2.116845E-10 -3.307774E-08  1.782590E-10 -1.193295E-12 -1.152009E-12 -1.782513E-10  0.000000E+00  0.000000E+00  0.000000E+00  0.000000E+00  0.000000E+00  0.000000E+00  0.000000E+00  0.000000E+00  5.093129E-01 -6.381288E-03 -3.573188E-03  5.092604E-01                                                                                                                                                                                                                                                                                                                                                                                                                                                                                              
  1.250000E+02  1.250000E+02 -4.975000E+03  5.838608E-08  1.418998E-09 -7.437711E-10 -5.836409E-08  3.068246E-10  7.481710E-12 -3.924449E-12 -3.067083E-10  0.000000E+00  0.000000E+00  0.000000E+00  0.000000E+00  0.000000E+00  0.000000E+00  0.000000E+00  0.000000E+00  9.193702E-01  1.473285E-02 -6.172428E-03  9.192315E-01                                                                                                                                                                                                                                                                                                                                                                                                                                                                                              
  3.750000E+02  1.250000E+02 -4.975000E+03  5.727288E-08  3.088496E-09 -8.193980E-10 -5.718368E-08  3.007428E-10  1.627490E-11 -4.319127E-12 -3.002710E-10  0.000000E+00  0.000000E+00  0.000000E+00  0.000000E+00  0.000000E+00  0.000000E+00  0.000000E+00  0.000000E+00  9.491540E-01  3.051814E-02 -6.680185E-03  9.486397E-01                                                                                                                                                                                                                                                                                                                                                                                                                                                                                              
  6.250000E+02  1.250000E+02 -4.975000E+03  5.639376E-08  2.813602E-09 -9.122088E-10 -5.631614E-08  2.958827E-10  1.481387E-11 -4.803226E-12 -2.954725E-10  0.000000E+00  0.000000E+00  0.000000E+00  0.000000E+00  0.000000E+00  0.000000E+00  0.000000E+00  0.000000E+00  9.709624E-01  2.597531E-02 -7.292874E-03  9.705875E-01                                                                                                                                                                                                                                                                                                                                                                                                                                                                                              
  8.750000E+02  1.250000E+02 -4.975000E+03  5.579346E-08  1.354512E-09 -9.957957E-10 -5.576812E-08  2.925775E-10  7.127499E-12 -5.239828E-12 -2.924437E-10  0.000000E+00  0.000000E+00  0.000000E+00  0.000000E+00  0.000000E+00  0.000000E+00  0.000000E+00  0.000000E+00  9.830485E-01  1.208360E-02 -7.932832E-03  9.829422E-01                                                                                                                                                                                                                                                                                                                                                                                                                                                                                              
  1.050000E+03  1.250000E+02 -4.975000E+03  5.562364E-08 -1.794923E-14 -1.016188E-09 -5.561436E-08  2.916691E-10 -9.441965E-17 -5.346683E-12 -2.916201E-10  0.000000E+00  0.000000E+00  0.000000E+00  0.000000E+00  0.000000E+00  0.000000E+00  0.000000E+00  0.000000E+00  9.856002E-01 -1.173242E-08 -8.134071E-03  9.855666E-01                                                                                                                                                                                                                                                                                                                                                                                                                                                                                              
  1.225000E+03  1.250000E+02 -4.975000E+03  5.579345E-08 -1.354515E-09 -9.957804E-10 -5.576812E-08  2.925775E-10 -7.127514E-12 -5.239747E-12 -2.924437E-10  0.000000E+00  0.000000E+00  0.000000E+00  0.000000E+00  0.000000E+00  0.000000E+00  0.000000E+00  0.000000E+00  9.830485E-01 -1.208360E-02 -7.932806E-03  9.829422E-01                                                                                                                                                                                                                                                                                                                                                                                                                                                                                              
  1.475000E+03  1.250000E+02 -4.975000E+03  5.639374E-08 -2.813610E-09 -9.122123E-10 -5.631612E-08  2.958826E-10 -1.481391E-11 -4.803244E-12 -2.954724E-10  0.000000E+00  0.000000E+00  0.000000E+00  0.000000E+00  0.000000E+00  0.000000E+00  0.000000E+00  0.000000E+00  9.709625E-01 -2.597532E-02 -7.292868E-03  9.705875E-01                                                                                                                                                                                                                                                                                                                                                                                                                                                                                              
  1.725000E+03  1.250000E+02 -4.975000E+03  5.727288E-08 -3.088537E-09 -8.193902E-10 -5.718368E-08  3.007428E-10 -1.627512E-11 -4.319087E-12 -3.002710E-10  0.000000E+00  0.000000E+00  0.000000E+00  0.000000E+00  0.000000E+00  0.000000E+00  0.000000E+00  0.000000E+00  9.491540E-01 -3.051817E-02 -6.680175E-03  9.486397E-01                                                                                                                                                                                                                                                                                                                                                                                                                                                                                              
  1.975000E+03  1.250000E+02 -4.975000E+03  5.838608E-08 -1.419015E-09 -7.437363E-10 -5.836410E-08  3.068247E-10 -7.481797E-12 -3.924266E-12 -3.067083E-10  0.000000E+00  0.000000E+00  0.000000E+00  0.000000E+00  0.000000E+00  0.000000E+00  0.000000E+00  0.000000E+00  9.193703E-01 -1.473285E-02 -6.172401E-03  9.192315E-01                                                                                                                                                                                                                                                                                                                                                                                                                                                                                              
  1.250000E+02  1.250000E+02 -4.725000E+03  7.458306E-08  2.106537E-09 -6.478862E-10 -7.455049E-08  3.813371E-10  1.071908E-11 -3.300530E-12 -3.811721E-10  0.000000E+00  0.000000E+00  0.000000E+00  0.000000E+00  0.000000E+00  0.000000E+00  0.000000E+00  0.000000E+00  1.184086E+00  3.533643E-02 -9.982476E-03  1.183517E+00                                                                                                                                                                                                                                                                                                                                                                                                                                                                                              
  3.750000E+02  1.250000E+02 -4.725000E+03  6.947813E-08  4.005692E-09 -7.849178E-10 -6.935812E-08  3.548479E-10  2.036810E-11 -3.991898E-12 -3.542404E-10  0.000000E+00  0.000000E+00  0.000000E+00  0.000000E+00  0.000000E+00  0.000000E+00  0.000000E+00  0.000000E+00  1.268308E+00  6.469801E-02 -1.166635E-02  1.266603E+00                                                                                                                                                                                                                                                                                                                                                                                                                                                                                              
  6.250000E+02  1.250000E+02 -4.725000E+03  6.679098E-08  3.078718E-09 -9.339293E-10 -6.671345E-08  3.407886E-10  1.563564E-11 -4.743363E-12 -3.403967E-10  0.000000E+00  0.000000E+00  0.000000E+00  0.000000E+00  0.000000E+00  0.000000E+00  0.000000E+00  0.000000E+00  1.302300E+00  4.680937E-02 -1.351456E-02  1.301388E+00                                                                                                                                                                                                                                                                                                                                                                                                                                                                                              
  8.750000E+02  1.250000E+02 -4.725000E+03  6.523198E-08  1.476183E-09 -1.103313E-09 -6.520594E-08  3.326454E-10  7.491379E-12 -5.599443E-12 -3.325139E-10  0.000000E+00  0.000000E+00  0.000000E+00  0.000000E+00  0.000000E+00  0.000000E+00  0.000000E+00  0.000000E+00  1.319691E+00  2.206041E-02 -1.589290E-02  1.319411E+00                                                                                                                                                                                                                                                                                                                                                                                                                                                                                              
  1.050000E+03  1.250000E+02 -4.725000E+03  6.419808E-08  3.369816E-15 -1.207862E-09 -6.418672E-08  3.273780E-10  1.709510E-17 -6.129353E-12 -3.273206E-10  0.000000E+00  0.000000E+00  0.000000E+00  0.000000E+00  0.000000E+00  0.000000E+00  0.000000E+00  0.000000E+00  1.335237E+00 -6.543652E-10 -1.754641E-02  1.335122E+00                                                                                                                                                                                                                                                                                                                                                                                                                                                                                              
  1.225000E+03  1.250000E+02 -4.725000E+03  6.523197E-08 -1.476187E-09 -1.103318E-09 -6.520593E-08  3.326454E-10 -7.491398E-12 -5.599467E-12 -3.325139E-10  0.000000E+00  0.000000E+00  0.000000E+00  0.000000E+00  0.000000E+00  0.000000E+00  0.000000E+00  0.000000E+00  1.319691E+00 -2.206043E-02 -1.589290E-02  1.319411E+00                                                                                                                                                                                                                                                                                                                                                                                                                                                                                              
  1.475000E+03  1.250000E+02 -4.725000E+03  6.679098E-08 -3.078721E-09 -9.339321E-10 -6.671345E-08  3.407887E-10 -1.563566E-11 -4.743377E-12 -3.403967E-10  0.000000E+00  0.000000E+00  0.000000E+00  0.000000E+00  0.000000E+00  0.000000E+00  0.000000E+00  0.000000E+00  1.302300E+00 -4.680936E-02 -1.351454E-02  1.301388E+00                                                                                                                                                                                                                                                                                                                                                                                                                                                                                              
  1.725000E+03  1.250000E+02 -4.725000E+03  6.947812E-08 -4.005689E-09 -7.849287E-10 -6.935811E-08  3.548479E-10 -2.036809E-11 -3.991953E-12 -3.542404E-10  0.000000E+00  0.000000E+00  0.000000E+00  0.000000E+00  0.000000E+00  0.000000E+00  0.000000E+00  0.000000E+00  1.268308E+00 -6.469799E-02 -1.166636E-02  1.266603E+00                                                                                                                                                                                                                                                                                                                                                                                                                                                                                              