Title="TOUGHREACT V3.30-OMP flowvector.tec: Liq & Gas Fluxes (kg/s/m^2), Pore Velocities (m/s), & Heat Fluxes (J/s/m2)"                                                                                                                                                                                                                                                                                                                                                                                                                                                                                                                                                                                                                                                                                                         
Variables= "X(m)"     "Y(m)"      "Z(m)"     "FluxLiq"   "FluxLiq_X"   "FluxLiq_Y"   "FluxLiq_Z"   "PorVelLiq"  "PorVelLiqX"  "PorVelLiqY"  "PorVelLiqZ"     "FluxGas"   "FluxGas_X"   "FluxGas_Y"   "FluxGas_Z"   "PorVelGas"  "PorVelGasX"  "PorVelGasY"  "PorVelGasZ"    "HeatFlux"  "HeatFlux_X"  "HeatFlux_Y"  "HeatFlux_Z"                                                                                                                                                                                                                                                                                                                                                                                                                                                                                                
Zone T= "5.18400000E+05 sec" I=     9 J=    10 K=    24 F=Point
  1.250000E+02  1.250000E+02 -5.425000E+03  9.275632E-09 -5.389809E-10  2.930326E-10 -9.255322E-09  5.073057E-11 -2.963778E-12  1.611880E-12 -5.061827E-11  0.000000E+00  0.000000E+00  0.000000E+00  0.000000E+00  0.000000E+00  0.000000E+00  0.000000E+00  0.000000E+00  1.414857E-01  3.948418E-03 -2.504644E-03  1.414085E-01                                                                                                                                                                                                                                                                                                                                                                                                                                                                                              
  3.750000E+02  1.250000E+02 -5.425000E+03  9.577707E-09 -1.229321E-09  2.825381E-10 -9.494283E-09  5.236149E-11 -6.758080E-12  1.553520E-12 -5.190029E-11  0.000000E+00  0.000000E+00  0.000000E+00  0.000000E+00  0.000000E+00  0.000000E+00  0.000000E+00  0.000000E+00  1.439031E-01  9.051704E-03 -2.591377E-03  1.435947E-01                                                                                                                                                                                                                                                                                                                                                                                                                                                                                              
  6.250000E+02  1.250000E+02 -5.425000E+03  9.798215E-09 -1.171787E-09  2.668168E-10 -9.724235E-09  5.353441E-11 -6.439271E-12  1.466307E-12 -5.312550E-11  0.000000E+00  0.000000E+00  0.000000E+00  0.000000E+00  0.000000E+00  0.000000E+00  0.000000E+00  0.000000E+00  1.462347E-01  8.712273E-03 -2.702005E-03  1.459499E-01                                                                                                                                                                                                                                                                                                                                                                                                                                                                                              
  8.750000E+02  1.250000E+02 -5.425000E+03  9.870739E-09 -5.766028E-10  2.551403E-10 -9.850579E-09  5.390483E-11 -3.167622E-12  1.401620E-12 -5.379342E-11  0.000000E+00  0.000000E+00  0.000000E+00  0.000000E+00  0.000000E+00  0.000000E+00  0.000000E+00  0.000000E+00  1.475355E-01  4.232264E-03 -2.789544E-03  1.474484E-01                                                                                                                                                                                                                                                                                                                                                                                                                                                                                              
  1.050000E+03  1.250000E+02 -5.425000E+03  9.859625E-09  3.394077E-14  2.537800E-10 -9.856358E-09  5.384029E-11  1.864239E-16  1.394084E-12 -5.382224E-11  0.000000E+00  0.000000E+00  0.000000E+00  0.000000E+00  0.000000E+00  0.000000E+00  0.000000E+00  0.000000E+00  1.476696E-01  2.896650E-09 -2.802149E-03  1.476430E-01                                                                                                                                                                                                                                                                                                                                                                                                                                                                                              
  1.225000E+03  1.250000E+02 -5.425000E+03  9.870777E-09  5.765787E-10  2.550945E-10 -9.850621E-09  5.390504E-11  3.167490E-12  1.401368E-12 -5.379365E-11  0.000000E+00  0.000000E+00  0.000000E+00  0.000000E+00  0.000000E+00  0.000000E+00  0.000000E+00  0.000000E+00  1.475355E-01 -4.232340E-03 -2.789582E-03  1.474484E-01                                                                                                                                                                                                                                                                                                                                                                                                                                                                                              
  1.475000E+03  1.250000E+02 -5.425000E+03  9.798199E-09  1.171766E-09  2.668419E-10 -9.724220E-09  5.353432E-11  6.439154E-12  1.466445E-12 -5.312542E-11  0.000000E+00  0.000000E+00  0.000000E+00  0.000000E+00  0.000000E+00  0.000000E+00  0.000000E+00  0.000000E+00  1.462347E-01 -8.712257E-03 -2.701971E-03  1.459500E-01                                                                                                                                                                                                                                                                                                                                                                                                                                                                                              
  1.725000E+03  1.250000E+02 -5.425000E+03  9.577734E-09  1.229344E-09  2.825305E-10 -9.494307E-09  5.236164E-11  6.758207E-12  1.553478E-12 -5.190043E-11  0.000000E+00  0.000000E+00  0.000000E+00  0.000000E+00  0.000000E+00  0.000000E+00  0.000000E+00  0.000000E+00  1.439030E-01 -9.051610E-03 -2.591373E-03  1.435947E-01                                                                                                                                                                                                                                                                                                                                                                                                                                                                                              
  1.975000E+03  1.250000E+02 -5.425000E+03  9.275637E-09  5.389673E-10  2.930370E-10 -9.255327E-09  5.073060E-11  2.963704E-12  1.611904E-12 -5.061830E-11  0.000000E+00  0.000000E+00  0.000000E+00  0.000000E+00  0.000000E+00  0.000000E+00  0.000000E+00  0.000000E+00  1.414857E-01 -3.948418E-03 -2.504653E-03  1.414084E-01                                                                                                                                                                                                                                                                                                                                                                                                                                                                                              
  1.250000E+02  1.250000E+02 -5.225000E+03  3.303038E-08  2.193639E-10 -2.117004E-10 -3.302897E-08  1.779923E-10  1.193283E-12 -1.152096E-12 -1.779846E-10  0.000000E+00  0.000000E+00  0.000000E+00  0.000000E+00  0.000000E+00  0.000000E+00  0.000000E+00  0.000000E+00  5.093488E-01  6.381251E-03 -3.573228E-03  5.092962E-01                                                                                                                                                                                                                                                                                                                                                                                                                                                                                              
  3.750000E+02  1.250000E+02 -5.225000E+03  3.335088E-08  5.288600E-10 -2.379846E-10 -3.334584E-08  1.796121E-10  2.875823E-12 -1.294426E-12 -1.795845E-10  0.000000E+00  0.000000E+00  0.000000E+00  0.000000E+00  0.000000E+00  0.000000E+00  0.000000E+00  0.000000E+00  5.195086E-01  1.421913E-02 -3.734299E-03  5.193005E-01                                                                                                                                                                                                                                                                                                                                                                                                                                                                                              
  6.250000E+02  1.250000E+02 -5.225000E+03  3.362136E-08  5.456858E-10 -2.731000E-10 -3.361582E-08  1.809433E-10  2.965832E-12 -1.484430E-12 -1.809129E-10  0.000000E+00  0.000000E+00  0.000000E+00  0.000000E+00  0.000000E+00  0.000000E+00  0.000000E+00  0.000000E+00  5.292148E-01  1.323205E-02 -3.936566E-03  5.290347E-01                                                                                                                                                                                                                                                                                                                                                                                                                                                                                              
  8.750000E+02  1.250000E+02 -5.225000E+03  3.373746E-08  2.784483E-10 -3.001409E-10 -3.373497E-08  1.814831E-10  1.512838E-12 -1.630666E-12 -1.814695E-10  0.000000E+00  0.000000E+00  0.000000E+00  0.000000E+00  0.000000E+00  0.000000E+00  0.000000E+00  0.000000E+00  5.350290E-01  6.343395E-03 -4.113128E-03  5.349756E-01                                                                                                                                                                                                                                                                                                                                                                                                                                                                                              
  1.050000E+03  1.250000E+02 -5.225000E+03  3.373733E-08 -1.706619E-14 -3.038157E-10 -3.373596E-08  1.814709E-10 -9.270251E-17 -1.650540E-12 -1.814634E-10  0.000000E+00  0.000000E+00  0.000000E+00  0.000000E+00  0.000000E+00  0.000000E+00  0.000000E+00  0.000000E+00  5.358039E-01 -9.660043E-09 -4.145480E-03  5.357878E-01                                                                                                                                                                                                                                                                                                                                                                                                                                                                                              
  1.225000E+03  1.250000E+02 -5.225000E+03  3.373750E-08 -2.784801E-10 -3.001348E-10 -3.373502E-08  1.814833E-10 -1.513011E-12 -1.630633E-12 -1.814697E-10  0.000000E+00  0.000000E+00  0.000000E+00  0.000000E+00  0.000000E+00  0.000000E+00  0.000000E+00  0.000000E+00  5.350290E-01 -6.343436E-03 -4.113132E-03  5.349755E-01                                                                                                                                                                                                                                                                                                                                                                                                                                                                                              
  1.475000E+03  1.250000E+02 -5.225000E+03  3.362132E-08 -5.456886E-10 -2.730734E-10 -3.361578E-08  1.809431E-10 -2.965847E-12 -1.484285E-12 -1.809127E-10  0.000000E+00  0.000000E+00  0.000000E+00  0.000000E+00  0.000000E+00  0.000000E+00  0.000000E+00  0.000000E+00  5.292148E-01 -1.323203E-02 -3.936537E-03  5.290348E-01                                                                                                                                                                                                                                                                                                                                                                                                                                                                                              
  1.725000E+03  1.250000E+02 -5.225000E+03  3.335091E-08 -5.288478E-10 -2.379871E-10 -3.334587E-08  1.796123E-10 -2.875756E-12 -1.294440E-12 -1.795846E-10  0.000000E+00  0.000000E+00  0.000000E+00  0.000000E+00  0.000000E+00  0.000000E+00  0.000000E+00  0.000000E+00  5.195085E-01 -1.421912E-02 -3.734303E-03  5.193005E-01                                                                                                                                                                                                                                                                                                                                                                                                                                                                                              
  1.975000E+03  1.250000E+02 -5.225000E+03  3.303041E-08 -2.193637E-10 -2.116806E-10 -3.302900E-08  1.779924E-10 -1.193282E-12 -1.151988E-12 -1.779847E-10  0.000000E+00  0.000000E+00  0.000000E+00  0.000000E+00  0.000000E+00  0.000000E+00  0.000000E+00  0.000000E+00  5.093487E-01 -6.381293E-03 -3.573195E-03  5.092962E-01                                                                                                                                                                                                                                                                                                                                                                                                                                                                                              
  1.250000E+02  1.250000E+02 -4.975000E+03  5.838573E-08  1.418991E-09 -7.437654E-10 -5.836375E-08  3.068227E-10  7.481669E-12 -3.924418E-12 -3.067064E-10  0.000000E+00  0.000000E+00  0.000000E+00  0.000000E+00  0.000000E+00  0.000000E+00  0.000000E+00  0.000000E+00  9.193685E-01  1.473283E-02 -6.172427E-03  9.192297E-01                                                                                                                                                                                                                                                                                                                                                                                                                                                                                              
  3.750000E+02  1.250000E+02 -4.975000E+03  5.727254E-08  3.088480E-09 -8.193926E-10 -5.718334E-08  3.007409E-10  1.627482E-11 -4.319098E-12 -3.002692E-10  0.000000E+00  0.000000E+00  0.000000E+00  0.000000E+00  0.000000E+00  0.000000E+00  0.000000E+00  0.000000E+00  9.491521E-01  3.051812E-02 -6.680183E-03  9.486379E-01                                                                                                                                                                                                                                                                                                                                                                                                                                                                                              
  6.250000E+02  1.250000E+02 -4.975000E+03  5.639343E-08  2.813586E-09 -9.122034E-10 -5.631581E-08  2.958809E-10  1.481378E-11 -4.803196E-12 -2.954707E-10  0.000000E+00  0.000000E+00  0.000000E+00  0.000000E+00  0.000000E+00  0.000000E+00  0.000000E+00  0.000000E+00  9.709605E-01  2.597529E-02 -7.292872E-03  9.705856E-01                                                                                                                                                                                                                                                                                                                                                                                                                                                                                              
  8.750000E+02  1.250000E+02 -4.975000E+03  5.579313E-08  1.354504E-09 -9.957889E-10 -5.576780E-08  2.925757E-10  7.127453E-12 -5.239791E-12 -2.924419E-10  0.000000E+00  0.000000E+00  0.000000E+00  0.000000E+00  0.000000E+00  0.000000E+00  0.000000E+00  0.000000E+00  9.830465E-01  1.208359E-02 -7.932828E-03  9.829403E-01                                                                                                                                                                                                                                                                                                                                                                                                                                                                                              
  1.050000E+03  1.250000E+02 -4.975000E+03  5.562329E-08 -1.709507E-14 -1.016181E-09 -5.561401E-08  2.916672E-10 -8.992642E-17 -5.346648E-12 -2.916182E-10  0.000000E+00  0.000000E+00  0.000000E+00  0.000000E+00  0.000000E+00  0.000000E+00  0.000000E+00  0.000000E+00  9.855983E-01 -1.124562E-08 -8.134067E-03  9.855647E-01                                                                                                                                                                                                                                                                                                                                                                                                                                                                                              
  1.225000E+03  1.250000E+02 -4.975000E+03  5.579313E-08 -1.354507E-09 -9.957741E-10 -5.576780E-08  2.925757E-10 -7.127469E-12 -5.239713E-12 -2.924419E-10  0.000000E+00  0.000000E+00  0.000000E+00  0.000000E+00  0.000000E+00  0.000000E+00  0.000000E+00  0.000000E+00  9.830465E-01 -1.208359E-02 -7.932802E-03  9.829402E-01                                                                                                                                                                                                                                                                                                                                                                                                                                                                                              
  1.475000E+03  1.250000E+02 -4.975000E+03  5.639341E-08 -2.813595E-09 -9.122068E-10 -5.631579E-08  2.958808E-10 -1.481383E-11 -4.803214E-12 -2.954706E-10  0.000000E+00  0.000000E+00  0.000000E+00  0.000000E+00  0.000000E+00  0.000000E+00  0.000000E+00  0.000000E+00  9.709606E-01 -2.597530E-02 -7.292865E-03  9.705856E-01                                                                                                                                                                                                                                                                                                                                                                                                                                                                                              
  1.725000E+03  1.250000E+02 -4.975000E+03  5.727255E-08 -3.088519E-09 -8.193844E-10 -5.718334E-08  3.007409E-10 -1.627502E-11 -4.319055E-12 -3.002692E-10  0.000000E+00  0.000000E+00  0.000000E+00  0.000000E+00  0.000000E+00  0.000000E+00  0.000000E+00  0.000000E+00  9.491521E-01 -3.051814E-02 -6.680173E-03  9.486378E-01                                                                                                                                                                                                                                                                                                                                                                                                                                                                                              
  1.975000E+03  1.250000E+02 -4.975000E+03  5.838574E-08 -1.419007E-09 -7.437314E-10 -5.836375E-08  3.068228E-10 -7.481752E-12 -3.924239E-12 -3.067064E-10  0.000000E+00  0.000000E+00  0.000000E+00  0.000000E+00  0.000000E+00  0.000000E+00  0.000000E+00  0.000000E+00  9.193685E-01 -1.473283E-02 -6.172400E-03  9.192297E-01                                                                                                                                                                                                                                                                                                                                                                                                                                                                                              
  1.250000E+02  1.250000E+02 -4.725000E+03  7.458277E-08  2.106524E-09 -6.478815E-10 -7.455020E-08  3.813356E-10  1.071901E-11 -3.300506E-12 -3.811706E-10  0.000000E+00  0.000000E+00  0.000000E+00  0.000000E+00  0.000000E+00  0.000000E+00  0.000000E+00  0.000000E+00  1.184083E+00  3.533637E-02 -9.982464E-03  1.183514E+00                                                                                                                                                                                                                                                                                                                                                                                                                                                                                              
  3.750000E+02  1.250000E+02 -4.725000E+03  6.947787E-08  4.005665E-09 -7.849126E-10 -6.935786E-08  3.548466E-10  2.036797E-11 -3.991871E-12 -3.542390E-10  0.000000E+00  0.000000E+00  0.000000E+00  0.000000E+00  0.000000E+00  0.000000E+00  0.000000E+00  0.000000E+00  1.268305E+00  6.469792E-02 -1.166634E-02  1.266600E+00                                                                                                                                                                                                                                                                                                                                                                                                                                                                                              
  6.250000E+02  1.250000E+02 -4.725000E+03  6.679073E-08  3.078698E-09 -9.339231E-10 -6.671320E-08  3.407874E-10  1.563554E-11 -4.743331E-12 -3.403954E-10  0.000000E+00  0.000000E+00  0.000000E+00  0.000000E+00  0.000000E+00  0.000000E+00  0.000000E+00  0.000000E+00  1.302297E+00  4.680931E-02 -1.351454E-02  1.301385E+00                                                                                                                                                                                                                                                                                                                                                                                                                                                                                              
  8.750000E+02  1.250000E+02 -4.725000E+03  6.523174E-08  1.476174E-09 -1.103306E-09 -6.520570E-08  3.326442E-10  7.491330E-12 -5.599407E-12 -3.325127E-10  0.000000E+00  0.000000E+00  0.000000E+00  0.000000E+00  0.000000E+00  0.000000E+00  0.000000E+00  0.000000E+00  1.319687E+00  2.206039E-02 -1.589288E-02  1.319407E+00                                                                                                                                                                                                                                                                                                                                                                                                                                                                                              
  1.050000E+03  1.250000E+02 -4.725000E+03  6.419785E-08  3.323388E-15 -1.207854E-09 -6.418649E-08  3.273768E-10  1.685957E-17 -6.129312E-12 -3.273194E-10  0.000000E+00  0.000000E+00  0.000000E+00  0.000000E+00  0.000000E+00  0.000000E+00  0.000000E+00  0.000000E+00  1.335234E+00 -6.588651E-10 -1.754639E-02  1.335119E+00                                                                                                                                                                                                                                                                                                                                                                                                                                                                                              
  1.225000E+03  1.250000E+02 -4.725000E+03  6.523173E-08 -1.476177E-09 -1.103311E-09 -6.520569E-08  3.326442E-10 -7.491348E-12 -5.599429E-12 -3.325126E-10  0.000000E+00  0.000000E+00  0.000000E+00  0.000000E+00  0.000000E+00  0.000000E+00  0.000000E+00  0.000000E+00  1.319687E+00 -2.206040E-02 -1.589288E-02  1.319407E+00                                                                                                                                                                                                                                                                                                                                                                                                                                                                                              
  1.475000E+03  1.250000E+02 -4.725000E+03  6.679074E-08 -3.078700E-09 -9.339259E-10 -6.671321E-08  3.407874E-10 -1.563555E-11 -4.743345E-12 -3.403955E-10  0.000000E+00  0.000000E+00  0.000000E+00  0.000000E+00  0.000000E+00  0.000000E+00  0.000000E+00  0.000000E+00  1.302297E+00 -4.680930E-02 -1.351453E-02  1.301385E+00                                                                                                                                                                                                                                                                                                                                                                                                                                                                                              
  1.725000E+03  1.250000E+02 -4.725000E+03  6.947786E-08 -4.005663E-09 -7.849231E-10 -6.935785E-08  3.548465E-10 -2.036796E-11 -3.991924E-12 -3.542390E-10  0.000000E+00  0.000000E+00  0.000000E+00  0.000000E+00  0.000000E+00  0.000000E+00  0.000000E+00  0.000000E+00  1.268305E+00 -6.469790E-02 -1.166635E-02  1.266600E+00                                                                                                                                                                                                                                                                                                                                                                                                                                                                                              