Title="TOUGHREACT V3.30-OMP flowvector.tec: Liq & Gas Fluxes (kg/s/m^2), Pore Velocities (m/s), & Heat Fluxes (J/s/m2)"                                                                                                                                                                                                                                                                                                                                                                                                                                                                                                                                                                                                                                                                                                         
Variables= "X(m)"     "Y(m)"      "Z(m)"     "FluxLiq"   "FluxLiq_X"   "FluxLiq_Y"   "FluxLiq_Z"   "PorVelLiq"  "PorVelLiqX"  "PorVelLiqY"  "PorVelLiqZ"     "FluxGas"   "FluxGas_X"   "FluxGas_Y"   "FluxGas_Z"   "PorVelGas"  "PorVelGasX"  "PorVelGasY"  "PorVelGasZ"    "HeatFlux"  "HeatFlux_X"  "HeatFlux_Y"  "HeatFlux_Z"                                                                                                                                                                                                                                                                                                                                                                                                                                                                                                
Zone T= "1.00000000E+11 sec" I=     9 J=    10 K=    24 F=Point
  1.250000E+02  1.250000E+02 -5.425000E+03  4.701263E-09 -4.694736E-10  6.900985E-10 -4.626578E-09  2.467294E-11 -2.473547E-12  3.637086E-12 -2.427771E-11  0.000000E+00  0.000000E+00  0.000000E+00  0.000000E+00  0.000000E+00  0.000000E+00  0.000000E+00  0.000000E+00  1.449052E-01  4.108638E-03 -3.565005E-03  1.448031E-01                                                                                                                                                                                                                                                                                                                                                                                                                                                                                              
  3.750000E+02  1.250000E+02 -5.425000E+03  4.964974E-09 -1.091155E-09  6.831230E-10 -4.795174E-09  2.605161E-11 -5.747840E-12  3.599168E-12 -2.515342E-11  0.000000E+00  0.000000E+00  0.000000E+00  0.000000E+00  0.000000E+00  0.000000E+00  0.000000E+00  0.000000E+00  1.468000E-01  9.394429E-03 -3.636374E-03  1.464540E-01                                                                                                                                                                                                                                                                                                                                                                                                                                                                                              
  6.250000E+02  1.250000E+02 -5.425000E+03  5.129391E-09 -1.046505E-09  6.731184E-10 -4.976182E-09  2.690140E-11 -5.511020E-12  3.544996E-12 -2.609113E-11  0.000000E+00  0.000000E+00  0.000000E+00  0.000000E+00  0.000000E+00  0.000000E+00  0.000000E+00  0.000000E+00  1.486106E-01  8.401048E-03 -3.729876E-03  1.483261E-01                                                                                                                                                                                                                                                                                                                                                                                                                                                                                              
  8.750000E+02  1.250000E+02 -5.425000E+03  5.132724E-09 -4.694417E-10  6.663128E-10 -5.067594E-09  2.690729E-11 -2.471628E-12  3.508297E-12 -2.656285E-11  0.000000E+00  0.000000E+00  0.000000E+00  0.000000E+00  0.000000E+00  0.000000E+00  0.000000E+00  0.000000E+00  1.501431E-01  9.646000E-04 -3.805794E-03  1.500918E-01                                                                                                                                                                                                                                                                                                                                                                                                                                                                                              
  1.050000E+03  1.250000E+02 -5.425000E+03  5.019909E-09 -7.423126E-15  6.665227E-10 -4.975463E-09  2.631618E-11 -3.908040E-17  3.509785E-12 -2.608108E-11  0.000000E+00  0.000000E+00  0.000000E+00  0.000000E+00  0.000000E+00  0.000000E+00  0.000000E+00  0.000000E+00  1.525094E-01  2.770617E-09 -3.815663E-03  1.524616E-01                                                                                                                                                                                                                                                                                                                                                                                                                                                                                              
  1.225000E+03  1.250000E+02 -5.425000E+03  5.132725E-09  4.694394E-10  6.663082E-10 -5.067596E-09  2.690729E-11  2.471616E-12  3.508273E-12 -2.656286E-11  0.000000E+00  0.000000E+00  0.000000E+00  0.000000E+00  0.000000E+00  0.000000E+00  0.000000E+00  0.000000E+00  1.501431E-01 -9.646043E-04 -3.805821E-03  1.500917E-01                                                                                                                                                                                                                                                                                                                                                                                                                                                                                              
  1.475000E+03  1.250000E+02 -5.425000E+03  5.129378E-09  1.046521E-09  6.731176E-10 -4.976166E-09  2.690133E-11  5.511105E-12  3.544991E-12 -2.609104E-11  0.000000E+00  0.000000E+00  0.000000E+00  0.000000E+00  0.000000E+00  0.000000E+00  0.000000E+00  0.000000E+00  1.486106E-01 -8.401040E-03 -3.729870E-03  1.483261E-01                                                                                                                                                                                                                                                                                                                                                                                                                                                                                              
  1.725000E+03  1.250000E+02 -5.425000E+03  4.964971E-09  1.091158E-09  6.831075E-10 -4.795172E-09  2.605159E-11  5.747853E-12  3.599086E-12 -2.515341E-11  0.000000E+00  0.000000E+00  0.000000E+00  0.000000E+00  0.000000E+00  0.000000E+00  0.000000E+00  0.000000E+00  1.468000E-01 -9.394428E-03 -3.636396E-03  1.464540E-01                                                                                                                                                                                                                                                                                                                                                                                                                                                                                              
  1.975000E+03  1.250000E+02 -5.425000E+03  4.701265E-09  4.694651E-10  6.901051E-10 -4.626581E-09  2.467295E-11  2.473502E-12  3.637120E-12 -2.427772E-11  0.000000E+00  0.000000E+00  0.000000E+00  0.000000E+00  0.000000E+00  0.000000E+00  0.000000E+00  0.000000E+00  1.449052E-01 -4.108652E-03 -3.564999E-03  1.448031E-01                                                                                                                                                                                                                                                                                                                                                                                                                                                                                              
  1.250000E+02  1.250000E+02 -5.225000E+03  1.600511E-08 -4.908760E-11  2.423312E-10 -1.600320E-08  8.323457E-11 -2.565212E-13  1.266810E-12 -8.322453E-11  0.000000E+00  0.000000E+00  0.000000E+00  0.000000E+00  0.000000E+00  0.000000E+00  0.000000E+00  0.000000E+00  4.204107E-01  5.724587E-03 -4.212412E-03  4.203507E-01                                                                                                                                                                                                                                                                                                                                                                                                                                                                                              
  3.750000E+02  1.250000E+02 -5.225000E+03  1.632363E-08 -1.148933E-10  2.291677E-10 -1.632161E-08  8.485612E-11 -6.002552E-13  1.197525E-12 -8.484555E-11  0.000000E+00  0.000000E+00  0.000000E+00  0.000000E+00  0.000000E+00  0.000000E+00  0.000000E+00  0.000000E+00  4.279277E-01  1.288014E-02 -4.343198E-03  4.277118E-01                                                                                                                                                                                                                                                                                                                                                                                                                                                                                              
  6.250000E+02  1.250000E+02 -5.225000E+03  1.664943E-08 -1.202249E-10  2.114627E-10 -1.664765E-08  8.650757E-11 -6.278727E-13  1.104466E-12 -8.649824E-11  0.000000E+00  0.000000E+00  0.000000E+00  0.000000E+00  0.000000E+00  0.000000E+00  0.000000E+00  0.000000E+00  4.351977E-01  1.191918E-02 -4.512462E-03  4.350110E-01                                                                                                                                                                                                                                                                                                                                                                                                                                                                                              
  8.750000E+02  1.250000E+02 -5.225000E+03  1.680690E-08 -7.797177E-11  1.980422E-10 -1.680555E-08  8.729737E-11 -4.070914E-13  1.034037E-12 -8.729029E-11  0.000000E+00  0.000000E+00  0.000000E+00  0.000000E+00  0.000000E+00  0.000000E+00  0.000000E+00  0.000000E+00  4.403086E-01  5.280758E-03 -4.663516E-03  4.402522E-01                                                                                                                                                                                                                                                                                                                                                                                                                                                                                              
  1.050000E+03  1.250000E+02 -5.225000E+03  1.670449E-08 -9.276041E-15  1.962913E-10 -1.670334E-08  8.675989E-11 -4.842404E-17  1.024870E-12 -8.675384E-11  0.000000E+00  0.000000E+00  0.000000E+00  0.000000E+00  0.000000E+00  0.000000E+00  0.000000E+00  0.000000E+00  4.433457E-01 -2.340357E-08 -4.690593E-03  4.433209E-01                                                                                                                                                                                                                                                                                                                                                                                                                                                                                              
  1.225000E+03  1.250000E+02 -5.225000E+03  1.680690E-08  7.798129E-11  1.980450E-10 -1.680555E-08  8.729736E-11  4.071411E-13  1.034051E-12 -8.729029E-11  0.000000E+00  0.000000E+00  0.000000E+00  0.000000E+00  0.000000E+00  0.000000E+00  0.000000E+00  0.000000E+00  4.403086E-01 -5.280768E-03 -4.663510E-03  4.402522E-01                                                                                                                                                                                                                                                                                                                                                                                                                                                                                              
  1.475000E+03  1.250000E+02 -5.225000E+03  1.664942E-08  1.202425E-10  2.114510E-10 -1.664764E-08  8.650750E-11  6.279645E-13  1.104405E-12 -8.649817E-11  0.000000E+00  0.000000E+00  0.000000E+00  0.000000E+00  0.000000E+00  0.000000E+00  0.000000E+00  0.000000E+00  4.351977E-01 -1.191916E-02 -4.512472E-03  4.350110E-01                                                                                                                                                                                                                                                                                                                                                                                                                                                                                              
  1.725000E+03  1.250000E+02 -5.225000E+03  1.632364E-08  1.148810E-10  2.291634E-10 -1.632162E-08  8.485617E-11  6.001907E-13  1.197503E-12 -8.484559E-11  0.000000E+00  0.000000E+00  0.000000E+00  0.000000E+00  0.000000E+00  0.000000E+00  0.000000E+00  0.000000E+00  4.279277E-01 -1.288014E-02 -4.343206E-03  4.277118E-01                                                                                                                                                                                                                                                                                                                                                                                                                                                                                              
  1.975000E+03  1.250000E+02 -5.225000E+03  1.600511E-08  4.907647E-11  2.423331E-10 -1.600320E-08  8.323459E-11  2.564630E-13  1.266820E-12 -8.322455E-11  0.000000E+00  0.000000E+00  0.000000E+00  0.000000E+00  0.000000E+00  0.000000E+00  0.000000E+00  0.000000E+00  4.204108E-01 -5.724589E-03 -4.212414E-03  4.203507E-01                                                                                                                                                                                                                                                                                                                                                                                                                                                                                              
  1.250000E+02  1.250000E+02 -4.975000E+03  2.722920E-08  4.307087E-10 -1.400388E-10 -2.722543E-08  1.396480E-10  2.211391E-12 -7.193636E-13 -1.396286E-10  0.000000E+00  0.000000E+00  0.000000E+00  0.000000E+00  0.000000E+00  0.000000E+00  0.000000E+00  0.000000E+00  6.454594E-01  1.163192E-02 -5.722024E-03  6.453292E-01                                                                                                                                                                                                                                                                                                                                                                                                                                                                                              
  3.750000E+02  1.250000E+02 -4.975000E+03  2.708862E-08  9.380128E-10 -1.716155E-10 -2.707183E-08  1.388493E-10  4.814251E-12 -8.809980E-13 -1.387630E-10  0.000000E+00  0.000000E+00  0.000000E+00  0.000000E+00  0.000000E+00  0.000000E+00  0.000000E+00  0.000000E+00  6.672593E-01  2.443870E-02 -6.140909E-03  6.667833E-01                                                                                                                                                                                                                                                                                                                                                                                                                                                                                              
  6.250000E+02  1.250000E+02 -4.975000E+03  2.702567E-08  8.512115E-10 -2.108681E-10 -2.701144E-08  1.384453E-10  4.366338E-12 -1.081740E-12 -1.383722E-10  0.000000E+00  0.000000E+00  0.000000E+00  0.000000E+00  0.000000E+00  0.000000E+00  0.000000E+00  0.000000E+00  6.832574E-01  2.118949E-02 -6.660980E-03  6.828963E-01                                                                                                                                                                                                                                                                                                                                                                                                                                                                                              
  8.750000E+02  1.250000E+02 -4.975000E+03  2.695003E-08  4.058369E-10 -2.457511E-10 -2.694585E-08  1.380054E-10  2.080959E-12 -1.260117E-12 -1.379839E-10  0.000000E+00  0.000000E+00  0.000000E+00  0.000000E+00  0.000000E+00  0.000000E+00  0.000000E+00  0.000000E+00  6.923861E-01  9.920577E-03 -7.203801E-03  6.922775E-01                                                                                                                                                                                                                                                                                                                                                                                                                                                                                              
  1.050000E+03  1.250000E+02 -4.975000E+03  2.688523E-08 -4.076783E-15 -2.539349E-10 -2.688403E-08  1.376667E-10 -2.089964E-17 -1.302008E-12 -1.376606E-10  0.000000E+00  0.000000E+00  0.000000E+00  0.000000E+00  0.000000E+00  0.000000E+00  0.000000E+00  0.000000E+00  6.946550E-01 -1.297130E-08 -7.366660E-03  6.946159E-01                                                                                                                                                                                                                                                                                                                                                                                                                                                                                              
  1.225000E+03  1.250000E+02 -4.975000E+03  2.695002E-08 -4.058326E-10 -2.457501E-10 -2.694585E-08  1.380054E-10 -2.080937E-12 -1.260112E-12 -1.379839E-10  0.000000E+00  0.000000E+00  0.000000E+00  0.000000E+00  0.000000E+00  0.000000E+00  0.000000E+00  0.000000E+00  6.923861E-01 -9.920567E-03 -7.203798E-03  6.922775E-01                                                                                                                                                                                                                                                                                                                                                                                                                                                                                              
  1.475000E+03  1.250000E+02 -4.975000E+03  2.702567E-08 -8.512113E-10 -2.108716E-10 -2.701144E-08  1.384453E-10 -4.366337E-12 -1.081758E-12 -1.383722E-10  0.000000E+00  0.000000E+00  0.000000E+00  0.000000E+00  0.000000E+00  0.000000E+00  0.000000E+00  0.000000E+00  6.832574E-01 -2.118949E-02 -6.661008E-03  6.828963E-01                                                                                                                                                                                                                                                                                                                                                                                                                                                                                              
  1.725000E+03  1.250000E+02 -4.975000E+03  2.708863E-08 -9.380202E-10 -1.716050E-10 -2.707184E-08  1.388494E-10 -4.814289E-12 -8.809441E-13 -1.387631E-10  0.000000E+00  0.000000E+00  0.000000E+00  0.000000E+00  0.000000E+00  0.000000E+00  0.000000E+00  0.000000E+00  6.672593E-01 -2.443871E-02 -6.140902E-03  6.667834E-01                                                                                                                                                                                                                                                                                                                                                                                                                                                                                              
  1.975000E+03  1.250000E+02 -4.975000E+03  2.722920E-08 -4.307080E-10 -1.400294E-10 -2.722543E-08  1.396480E-10 -2.211387E-12 -7.193155E-13 -1.396286E-10  0.000000E+00  0.000000E+00  0.000000E+00  0.000000E+00  0.000000E+00  0.000000E+00  0.000000E+00  0.000000E+00  6.454594E-01 -1.163191E-02 -5.722041E-03  6.453292E-01                                                                                                                                                                                                                                                                                                                                                                                                                                                                                              
  1.250000E+02  1.250000E+02 -4.725000E+03  3.367389E-08  6.064221E-10 -1.632100E-10 -3.366804E-08  1.702104E-10  3.056870E-12 -8.233096E-13 -1.701809E-10  0.000000E+00  0.000000E+00  0.000000E+00  0.000000E+00  0.000000E+00  0.000000E+00  0.000000E+00  0.000000E+00  7.726942E-01  2.710795E-02 -8.134270E-03  7.721757E-01                                                                                                                                                                                                                                                                                                                                                                                                                                                                                              
  3.750000E+02  1.250000E+02 -4.725000E+03  3.226252E-08  1.159147E-09 -2.127512E-10 -3.224099E-08  1.629436E-10  5.840376E-12 -1.072101E-12 -1.628354E-10  0.000000E+00  0.000000E+00  0.000000E+00  0.000000E+00  0.000000E+00  0.000000E+00  0.000000E+00  0.000000E+00  8.354501E-01  5.033831E-02 -9.537596E-03  8.338776E-01                                                                                                                                                                                                                                                                                                                                                                                                                                                                                              
  6.250000E+02  1.250000E+02 -4.725000E+03  3.155132E-08  8.992555E-10 -2.665761E-10 -3.153737E-08  1.592430E-10  4.527433E-12 -1.342186E-12 -1.591730E-10  0.000000E+00  0.000000E+00  0.000000E+00  0.000000E+00  0.000000E+00  0.000000E+00  0.000000E+00  0.000000E+00  8.612814E-01  3.734700E-02 -1.111284E-02  8.603996E-01                                                                                                                                                                                                                                                                                                                                                                                                                                                                                              
  8.750000E+02  1.250000E+02 -4.725000E+03  3.112326E-08  4.408065E-10 -3.263278E-10 -3.111842E-08  1.570194E-10  2.218234E-12 -1.642226E-12 -1.569952E-10  0.000000E+00  0.000000E+00  0.000000E+00  0.000000E+00  0.000000E+00  0.000000E+00  0.000000E+00  0.000000E+00  8.747317E-01  1.795406E-02 -1.310271E-02  8.744492E-01                                                                                                                                                                                                                                                                                                                                                                                                                                                                                              
  1.050000E+03  1.250000E+02 -4.725000E+03  3.075258E-08 -4.555593E-16 -3.631308E-10 -3.075043E-08  1.551442E-10 -2.291979E-18 -1.827296E-12 -1.551335E-10  0.000000E+00  0.000000E+00  0.000000E+00  0.000000E+00  0.000000E+00  0.000000E+00  0.000000E+00  0.000000E+00  8.879235E-01 -7.201880E-09 -1.442183E-02  8.878064E-01                                                                                                                                                                                                                                                                                                                                                                                                                                                                                              
  1.225000E+03  1.250000E+02 -4.725000E+03  3.112325E-08 -4.408051E-10 -3.263284E-10 -3.111842E-08  1.570194E-10 -2.218227E-12 -1.642229E-12 -1.569952E-10  0.000000E+00  0.000000E+00  0.000000E+00  0.000000E+00  0.000000E+00  0.000000E+00  0.000000E+00  0.000000E+00  8.747317E-01 -1.795407E-02 -1.310271E-02  8.744492E-01                                                                                                                                                                                                                                                                                                                                                                                                                                                                                              
  1.475000E+03  1.250000E+02 -4.725000E+03  3.155132E-08 -8.992569E-10 -2.665771E-10 -3.153738E-08  1.592430E-10 -4.527440E-12 -1.342192E-12 -1.591730E-10  0.000000E+00  0.000000E+00  0.000000E+00  0.000000E+00  0.000000E+00  0.000000E+00  0.000000E+00  0.000000E+00  8.612814E-01 -3.734699E-02 -1.111283E-02  8.603996E-01                                                                                                                                                                                                                                                                                                                                                                                                                                                                                              
  1.725000E+03  1.250000E+02 -4.725000E+03  3.226252E-08 -1.159151E-09 -2.127505E-10 -3.224099E-08  1.629436E-10 -5.840398E-12 -1.072098E-12 -1.628354E-10  0.000000E+00  0.000000E+00  0.000000E+00  0.000000E+00  0.000000E+00  0.000000E+00  0.000000E+00  0.000000E+00  8.354501E-01 -5.033831E-02 -9.537598E-03  8.338776E-01                                                                                                                                                                                                                                                                                                                                                                                                                                                                                              