Title="TOUGHREACT V3.30-OMP flowvector.tec: Liq & Gas Fluxes (kg/s/m^2), Pore Velocities (m/s), & Heat Fluxes (J/s/m2)"                                                                                                                                                                                                                                                                                                                                                                                                                                                                                                                                                                                                                                                                                                         
Variables= "X(m)"     "Y(m)"      "Z(m)"     "FluxLiq"   "FluxLiq_X"   "FluxLiq_Y"   "FluxLiq_Z"   "PorVelLiq"  "PorVelLiqX"  "PorVelLiqY"  "PorVelLiqZ"     "FluxGas"   "FluxGas_X"   "FluxGas_Y"   "FluxGas_Z"   "PorVelGas"  "PorVelGasX"  "PorVelGasY"  "PorVelGasZ"    "HeatFlux"  "HeatFlux_X"  "HeatFlux_Y"  "HeatFlux_Z"                                                                                                                                                                                                                                                                                                                                                                                                                                                                                                
Zone T= "1.00000000E+10 sec" I=     9 J=    10 K=    24 F=Point
  1.250000E+02  1.250000E+02 -5.425000E+03  6.725104E-09 -6.570294E-10  4.925396E-10 -6.674784E-09  3.659097E-11 -3.595777E-12  2.696488E-12 -3.631389E-11  0.000000E+00  0.000000E+00  0.000000E+00  0.000000E+00  0.000000E+00  0.000000E+00  0.000000E+00  0.000000E+00  1.628546E-01  4.049637E-03 -2.592075E-03  1.627836E-01                                                                                                                                                                                                                                                                                                                                                                                                                                                                                              
  3.750000E+02  1.250000E+02 -5.425000E+03  7.126298E-09 -1.522323E-09  4.831082E-10 -6.945017E-09  3.876379E-11 -8.329076E-12  2.643756E-12 -3.776597E-11  0.000000E+00  0.000000E+00  0.000000E+00  0.000000E+00  0.000000E+00  0.000000E+00  0.000000E+00  0.000000E+00  1.651449E-01  9.284828E-03 -2.675424E-03  1.648620E-01                                                                                                                                                                                                                                                                                                                                                                                                                                                                                              
  6.250000E+02  1.250000E+02 -5.425000E+03  7.382319E-09 -1.482987E-09  4.689041E-10 -7.216614E-09  4.013113E-11 -8.110664E-12  2.564650E-12 -3.921922E-11  0.000000E+00  0.000000E+00  0.000000E+00  0.000000E+00  0.000000E+00  0.000000E+00  0.000000E+00  0.000000E+00  1.673659E-01  8.615477E-03 -2.781967E-03  1.671208E-01                                                                                                                                                                                                                                                                                                                                                                                                                                                                                              
  8.750000E+02  1.250000E+02 -5.425000E+03  7.402426E-09 -6.913149E-10  4.585897E-10 -7.355793E-09  4.021614E-11 -3.779859E-12  2.507360E-12 -3.995952E-11  0.000000E+00  0.000000E+00  0.000000E+00  0.000000E+00  0.000000E+00  0.000000E+00  0.000000E+00  0.000000E+00  1.689428E-01  1.435885E-03 -2.866564E-03  1.689124E-01                                                                                                                                                                                                                                                                                                                                                                                                                                                                                              
  1.050000E+03  1.250000E+02 -5.425000E+03  7.228524E-09 -2.383245E-14  4.578948E-10 -7.214007E-09  3.927083E-11 -1.302928E-16  2.503864E-12 -3.919093E-11  0.000000E+00  0.000000E+00  0.000000E+00  0.000000E+00  0.000000E+00  0.000000E+00  0.000000E+00  0.000000E+00  1.712895E-01 -2.308940E-08 -2.878092E-03  1.712653E-01                                                                                                                                                                                                                                                                                                                                                                                                                                                                                              
  1.225000E+03  1.250000E+02 -5.425000E+03  7.402402E-09  6.912959E-10  4.585972E-10 -7.355770E-09  4.021601E-11  3.779755E-12  2.507401E-12 -3.995940E-11  0.000000E+00  0.000000E+00  0.000000E+00  0.000000E+00  0.000000E+00  0.000000E+00  0.000000E+00  0.000000E+00  1.689428E-01 -1.435917E-03 -2.866577E-03  1.689124E-01                                                                                                                                                                                                                                                                                                                                                                                                                                                                                              
  1.475000E+03  1.250000E+02 -5.425000E+03  7.382336E-09  1.482995E-09  4.689178E-10 -7.216629E-09  4.013122E-11  8.110708E-12  2.564724E-12 -3.921930E-11  0.000000E+00  0.000000E+00  0.000000E+00  0.000000E+00  0.000000E+00  0.000000E+00  0.000000E+00  0.000000E+00  1.673659E-01 -8.615467E-03 -2.781953E-03  1.671208E-01                                                                                                                                                                                                                                                                                                                                                                                                                                                                                              
  1.725000E+03  1.250000E+02 -5.425000E+03  7.126301E-09  1.522321E-09  4.831248E-10 -6.945019E-09  3.876380E-11  8.329063E-12  2.643847E-12 -3.776598E-11  0.000000E+00  0.000000E+00  0.000000E+00  0.000000E+00  0.000000E+00  0.000000E+00  0.000000E+00  0.000000E+00  1.651449E-01 -9.284802E-03 -2.675404E-03  1.648620E-01                                                                                                                                                                                                                                                                                                                                                                                                                                                                                              
  1.975000E+03  1.250000E+02 -5.425000E+03  6.725113E-09  6.570239E-10  4.925384E-10 -6.674793E-09  3.659102E-11  3.595747E-12  2.696481E-12 -3.631394E-11  0.000000E+00  0.000000E+00  0.000000E+00  0.000000E+00  0.000000E+00  0.000000E+00  0.000000E+00  0.000000E+00  1.628546E-01 -4.049630E-03 -2.592080E-03  1.627836E-01                                                                                                                                                                                                                                                                                                                                                                                                                                                                                              
  1.250000E+02  1.250000E+02 -5.225000E+03  2.571363E-08  6.796887E-11 -2.735855E-11 -2.571352E-08  1.378116E-10  3.675860E-13 -1.480235E-13 -1.378111E-10  0.000000E+00  0.000000E+00  0.000000E+00  0.000000E+00  0.000000E+00  0.000000E+00  0.000000E+00  0.000000E+00  5.238990E-01  6.380160E-03 -3.628284E-03  5.238476E-01                                                                                                                                                                                                                                                                                                                                                                                                                                                                                              
  3.750000E+02  1.250000E+02 -5.225000E+03  2.618034E-08  1.669593E-10 -5.016343E-11 -2.617976E-08  1.402338E-10  9.026135E-13 -2.712622E-13 -1.402307E-10  0.000000E+00  0.000000E+00  0.000000E+00  0.000000E+00  0.000000E+00  0.000000E+00  0.000000E+00  0.000000E+00  5.335744E-01  1.425968E-02 -3.782654E-03  5.333704E-01                                                                                                                                                                                                                                                                                                                                                                                                                                                                                              
  6.250000E+02  1.250000E+02 -5.225000E+03  2.661352E-08  1.593055E-10 -8.070422E-11 -2.661292E-08  1.424602E-10  8.608379E-13 -4.361230E-13 -1.424569E-10  0.000000E+00  0.000000E+00  0.000000E+00  0.000000E+00  0.000000E+00  0.000000E+00  0.000000E+00  0.000000E+00  5.428090E-01  1.325249E-02 -3.977063E-03  5.426326E-01                                                                                                                                                                                                                                                                                                                                                                                                                                                                                              
  8.750000E+02  1.250000E+02 -5.225000E+03  2.681056E-08  4.615770E-11 -1.039149E-10 -2.681032E-08  1.434507E-10  2.493534E-13 -5.612992E-13 -1.434494E-10  0.000000E+00  0.000000E+00  0.000000E+00  0.000000E+00  0.000000E+00  0.000000E+00  0.000000E+00  0.000000E+00  5.487410E-01  6.050842E-03 -4.147632E-03  5.486920E-01                                                                                                                                                                                                                                                                                                                                                                                                                                                                                              
  1.050000E+03  1.250000E+02 -5.225000E+03  2.664831E-08  5.705567E-15 -1.070063E-10 -2.664810E-08  1.425667E-10  3.081288E-17 -5.779740E-13 -1.425656E-10  0.000000E+00  0.000000E+00  0.000000E+00  0.000000E+00  0.000000E+00  0.000000E+00  0.000000E+00  0.000000E+00  5.518322E-01  3.666390E-08 -4.178920E-03  5.518163E-01                                                                                                                                                                                                                                                                                                                                                                                                                                                                                              
  1.225000E+03  1.250000E+02 -5.225000E+03  2.681054E-08 -4.618073E-11 -1.039105E-10 -2.681030E-08  1.434506E-10 -2.494779E-13 -5.612755E-13 -1.434493E-10  0.000000E+00  0.000000E+00  0.000000E+00  0.000000E+00  0.000000E+00  0.000000E+00  0.000000E+00  0.000000E+00  5.487410E-01 -6.050857E-03 -4.147657E-03  5.486920E-01                                                                                                                                                                                                                                                                                                                                                                                                                                                                                              
  1.475000E+03  1.250000E+02 -5.225000E+03  2.661352E-08 -1.593199E-10 -8.067517E-11 -2.661292E-08  1.424602E-10 -8.609160E-13 -4.359660E-13 -1.424569E-10  0.000000E+00  0.000000E+00  0.000000E+00  0.000000E+00  0.000000E+00  0.000000E+00  0.000000E+00  0.000000E+00  5.428090E-01 -1.325253E-02 -3.977041E-03  5.426326E-01                                                                                                                                                                                                                                                                                                                                                                                                                                                                                              
  1.725000E+03  1.250000E+02 -5.225000E+03  2.618034E-08 -1.669524E-10 -5.016421E-11 -2.617976E-08  1.402338E-10 -9.025766E-13 -2.712665E-13 -1.402307E-10  0.000000E+00  0.000000E+00  0.000000E+00  0.000000E+00  0.000000E+00  0.000000E+00  0.000000E+00  0.000000E+00  5.335744E-01 -1.425964E-02 -3.782642E-03  5.333704E-01                                                                                                                                                                                                                                                                                                                                                                                                                                                                                              
  1.975000E+03  1.250000E+02 -5.225000E+03  2.571364E-08 -6.797631E-11 -2.737317E-11 -2.571353E-08  1.378117E-10 -3.676263E-13 -1.481026E-13 -1.378111E-10  0.000000E+00  0.000000E+00  0.000000E+00  0.000000E+00  0.000000E+00  0.000000E+00  0.000000E+00  0.000000E+00  5.238990E-01 -6.380136E-03 -3.628314E-03  5.238476E-01                                                                                                                                                                                                                                                                                                                                                                                                                                                                                              
  1.250000E+02  1.250000E+02 -4.975000E+03  4.767252E-08  1.117806E-09 -5.537532E-10 -4.765620E-08  2.495430E-10  5.869736E-12 -2.909896E-12 -2.494570E-10  0.000000E+00  0.000000E+00  0.000000E+00  0.000000E+00  0.000000E+00  0.000000E+00  0.000000E+00  0.000000E+00  8.896635E-01  1.436560E-02 -6.097432E-03  8.895266E-01                                                                                                                                                                                                                                                                                                                                                                                                                                                                                              
  3.750000E+02  1.250000E+02 -4.975000E+03  4.704496E-08  2.438629E-09 -6.177899E-10 -4.697765E-08  2.460747E-10  1.279850E-11 -3.243259E-12 -2.457202E-10  0.000000E+00  0.000000E+00  0.000000E+00  0.000000E+00  0.000000E+00  0.000000E+00  0.000000E+00  0.000000E+00  9.181205E-01  2.984045E-02 -6.587557E-03  9.176118E-01                                                                                                                                                                                                                                                                                                                                                                                                                                                                                              
  6.250000E+02  1.250000E+02 -4.975000E+03  4.657380E-08  2.221560E-09 -6.964933E-10 -4.651557E-08  2.434175E-10  1.164983E-11 -3.652676E-12 -2.431111E-10  0.000000E+00  0.000000E+00  0.000000E+00  0.000000E+00  0.000000E+00  0.000000E+00  0.000000E+00  0.000000E+00  9.388520E-01  2.549540E-02 -7.180972E-03  9.384783E-01                                                                                                                                                                                                                                                                                                                                                                                                                                                                                              
  8.750000E+02  1.250000E+02 -4.975000E+03  4.621220E-08  1.062375E-09 -7.665418E-10 -4.619362E-08  2.414032E-10  5.567963E-12 -4.017416E-12 -2.413055E-10  0.000000E+00  0.000000E+00  0.000000E+00  0.000000E+00  0.000000E+00  0.000000E+00  0.000000E+00  0.000000E+00  9.503628E-01  1.186409E-02 -7.802359E-03  9.502567E-01                                                                                                                                                                                                                                                                                                                                                                                                                                                                                              
  1.050000E+03  1.250000E+02 -4.975000E+03  4.606498E-08 -7.640113E-16 -7.832582E-10 -4.605832E-08  2.406181E-10 -4.003726E-18 -4.104697E-12 -2.405831E-10  0.000000E+00  0.000000E+00  0.000000E+00  0.000000E+00  0.000000E+00  0.000000E+00  0.000000E+00  0.000000E+00  9.530095E-01 -3.609115E-08 -7.997027E-03  9.529759E-01                                                                                                                                                                                                                                                                                                                                                                                                                                                                                              
  1.225000E+03  1.250000E+02 -4.975000E+03  4.621220E-08 -1.062380E-09 -7.665452E-10 -4.619363E-08  2.414032E-10 -5.567985E-12 -4.017434E-12 -2.413055E-10  0.000000E+00  0.000000E+00  0.000000E+00  0.000000E+00  0.000000E+00  0.000000E+00  0.000000E+00  0.000000E+00  9.503628E-01 -1.186412E-02 -7.802336E-03  9.502567E-01                                                                                                                                                                                                                                                                                                                                                                                                                                                                                              
  1.475000E+03  1.250000E+02 -4.975000E+03  4.657378E-08 -2.221565E-09 -6.964889E-10 -4.651555E-08  2.434174E-10 -1.164986E-11 -3.652653E-12 -2.431110E-10  0.000000E+00  0.000000E+00  0.000000E+00  0.000000E+00  0.000000E+00  0.000000E+00  0.000000E+00  0.000000E+00  9.388520E-01 -2.549538E-02 -7.180953E-03  9.384783E-01                                                                                                                                                                                                                                                                                                                                                                                                                                                                                              
  1.725000E+03  1.250000E+02 -4.975000E+03  4.704496E-08 -2.438637E-09 -6.177982E-10 -4.697765E-08  2.460747E-10 -1.279854E-11 -3.243302E-12 -2.457202E-10  0.000000E+00  0.000000E+00  0.000000E+00  0.000000E+00  0.000000E+00  0.000000E+00  0.000000E+00  0.000000E+00  9.181205E-01 -2.984043E-02 -6.587557E-03  9.176118E-01                                                                                                                                                                                                                                                                                                                                                                                                                                                                                              
  1.975000E+03  1.250000E+02 -4.975000E+03  4.767252E-08 -1.117813E-09 -5.537519E-10 -4.765619E-08  2.495430E-10 -5.869771E-12 -2.909890E-12 -2.494569E-10  0.000000E+00  0.000000E+00  0.000000E+00  0.000000E+00  0.000000E+00  0.000000E+00  0.000000E+00  0.000000E+00  8.896635E-01 -1.436559E-02 -6.097452E-03  8.895266E-01                                                                                                                                                                                                                                                                                                                                                                                                                                                                                              
  1.250000E+02  1.250000E+02 -4.725000E+03  6.186245E-08  1.678732E-09 -5.084097E-10 -6.183758E-08  3.157323E-10  8.529619E-12 -2.586031E-12 -3.156065E-10  0.000000E+00  0.000000E+00  0.000000E+00  0.000000E+00  0.000000E+00  0.000000E+00  0.000000E+00  0.000000E+00  1.128728E+00  3.427749E-02 -9.733545E-03  1.128165E+00                                                                                                                                                                                                                                                                                                                                                                                                                                                                                              
  3.750000E+02  1.250000E+02 -4.725000E+03  5.802792E-08  3.203247E-09 -6.218319E-10 -5.793610E-08  2.958467E-10  1.626439E-11 -3.157918E-12 -2.953825E-10  0.000000E+00  0.000000E+00  0.000000E+00  0.000000E+00  0.000000E+00  0.000000E+00  0.000000E+00  0.000000E+00  1.209745E+00  6.287470E-02 -1.137093E-02  1.208057E+00                                                                                                                                                                                                                                                                                                                                                                                                                                                                                              
  6.250000E+02  1.250000E+02 -4.725000E+03  5.604890E-08  2.473779E-09 -7.449699E-10 -5.598933E-08  2.854877E-10  1.254608E-11 -3.778432E-12 -2.851868E-10  0.000000E+00  0.000000E+00  0.000000E+00  0.000000E+00  0.000000E+00  0.000000E+00  0.000000E+00  0.000000E+00  1.242264E+00  4.563837E-02 -1.317264E-02  1.241356E+00                                                                                                                                                                                                                                                                                                                                                                                                                                                                                              
  8.750000E+02  1.250000E+02 -4.725000E+03  5.488963E-08  1.188710E-09 -8.836310E-10 -5.486964E-08  2.794300E-10  6.024402E-12 -4.478496E-12 -2.793292E-10  0.000000E+00  0.000000E+00  0.000000E+00  0.000000E+00  0.000000E+00  0.000000E+00  0.000000E+00  0.000000E+00  1.258846E+00  2.155644E-02 -1.548995E-02  1.258566E+00                                                                                                                                                                                                                                                                                                                                                                                                                                                                                              
  1.050000E+03  1.250000E+02 -4.725000E+03  5.406103E-08 -1.219898E-15 -9.684554E-10 -5.405235E-08  2.752130E-10 -6.180449E-18 -4.907882E-12 -2.751692E-10  0.000000E+00  0.000000E+00  0.000000E+00  0.000000E+00  0.000000E+00  0.000000E+00  0.000000E+00  0.000000E+00  1.274046E+00 -6.894512E-09 -1.709273E-02  1.273931E+00                                                                                                                                                                                                                                                                                                                                                                                                                                                                                              
  1.225000E+03  1.250000E+02 -4.725000E+03  5.488963E-08 -1.188709E-09 -8.836282E-10 -5.486964E-08  2.794300E-10 -6.024397E-12 -4.478482E-12 -2.793292E-10  0.000000E+00  0.000000E+00  0.000000E+00  0.000000E+00  0.000000E+00  0.000000E+00  0.000000E+00  0.000000E+00  1.258846E+00 -2.155645E-02 -1.548995E-02  1.258566E+00                                                                                                                                                                                                                                                                                                                                                                                                                                                                                              
  1.475000E+03  1.250000E+02 -4.725000E+03  5.604890E-08 -2.473783E-09 -7.449726E-10 -5.598932E-08  2.854877E-10 -1.254610E-11 -3.778446E-12 -2.851868E-10  0.000000E+00  0.000000E+00  0.000000E+00  0.000000E+00  0.000000E+00  0.000000E+00  0.000000E+00  0.000000E+00  1.242264E+00 -4.563838E-02 -1.317264E-02  1.241356E+00                                                                                                                                                                                                                                                                                                                                                                                                                                                                                              
  1.725000E+03  1.250000E+02 -4.725000E+03  5.802792E-08 -3.203250E-09 -6.218310E-10 -5.793610E-08  2.958467E-10 -1.626441E-11 -3.157913E-12 -2.953824E-10  0.000000E+00  0.000000E+00  0.000000E+00  0.000000E+00  0.000000E+00  0.000000E+00  0.000000E+00  0.000000E+00  1.209745E+00 -6.287470E-02 -1.137093E-02  1.208057E+00                                                                                                                                                                                                                                                                                                                                                                                                                                                                                              