Title="TOUGHREACT V3.30-OMP flowvector.tec: Liq & Gas Fluxes (kg/s/m^2), Pore Velocities (m/s), & Heat Fluxes (J/s/m2)"                                                                                                                                                                                                                                                                                                                                                                                                                                                                                                                                                                                                                                                                                                         
Variables= "X(m)"     "Y(m)"      "Z(m)"     "FluxLiq"   "FluxLiq_X"   "FluxLiq_Y"   "FluxLiq_Z"   "PorVelLiq"  "PorVelLiqX"  "PorVelLiqY"  "PorVelLiqZ"     "FluxGas"   "FluxGas_X"   "FluxGas_Y"   "FluxGas_Z"   "PorVelGas"  "PorVelGasX"  "PorVelGasY"  "PorVelGasZ"    "HeatFlux"  "HeatFlux_X"  "HeatFlux_Y"  "HeatFlux_Z"                                                                                                                                                                                                                                                                                                                                                                                                                                                                                                
Zone T= "1.00000000E+07 sec" I=     9 J=    10 K=    24 F=Point
  1.250000E+02  1.250000E+02 -5.425000E+03  8.574305E-09 -5.381962E-10  2.925565E-10 -8.552395E-09  4.689480E-11 -2.959447E-12  1.609252E-12 -4.677365E-11  0.000000E+00  0.000000E+00  0.000000E+00  0.000000E+00  0.000000E+00  0.000000E+00  0.000000E+00  0.000000E+00  1.420182E-01  3.949229E-03 -2.505248E-03  1.419411E-01                                                                                                                                                                                                                                                                                                                                                                                                                                                                                              
  3.750000E+02  1.250000E+02 -5.425000E+03  8.884134E-09 -1.227973E-09  2.820542E-10 -8.794337E-09  4.857023E-11 -6.750633E-12  1.550850E-12 -4.807380E-11  0.000000E+00  0.000000E+00  0.000000E+00  0.000000E+00  0.000000E+00  0.000000E+00  0.000000E+00  0.000000E+00  1.444307E-01  9.053269E-03 -2.591983E-03  1.441234E-01                                                                                                                                                                                                                                                                                                                                                                                                                                                                                              
  6.250000E+02  1.250000E+02 -5.425000E+03  9.108132E-09 -1.178874E-09  2.663123E-10 -9.027591E-09  4.976450E-11 -6.478169E-12  1.463526E-12 -4.931934E-11  0.000000E+00  0.000000E+00  0.000000E+00  0.000000E+00  0.000000E+00  0.000000E+00  0.000000E+00  0.000000E+00  1.467574E-01  8.707481E-03 -2.702623E-03  1.464739E-01                                                                                                                                                                                                                                                                                                                                                                                                                                                                                              
  8.750000E+02  1.250000E+02 -5.425000E+03  9.177338E-09 -6.890502E-10  2.546123E-10 -9.147891E-09  5.011855E-11 -3.785240E-12  1.398712E-12 -4.995582E-11  0.000000E+00  0.000000E+00  0.000000E+00  0.000000E+00  0.000000E+00  0.000000E+00  0.000000E+00  0.000000E+00  1.480593E-01  4.139488E-03 -2.790176E-03  1.479751E-01                                                                                                                                                                                                                                                                                                                                                                                                                                                                                              
  1.050000E+03  1.250000E+02 -5.425000E+03  9.076851E-09  2.109031E-14  2.532341E-10 -9.073317E-09  4.956559E-11  1.158411E-16  1.391078E-12 -4.954607E-11  0.000000E+00  0.000000E+00  0.000000E+00  0.000000E+00  0.000000E+00  0.000000E+00  0.000000E+00  0.000000E+00  1.482595E-01 -6.359035E-09 -2.802795E-03  1.482330E-01                                                                                                                                                                                                                                                                                                                                                                                                                                                                                              
  1.225000E+03  1.250000E+02 -5.425000E+03  9.177363E-09  6.890296E-10  2.545827E-10 -9.147919E-09  5.011868E-11  3.785127E-12  1.398549E-12 -4.995597E-11  0.000000E+00  0.000000E+00  0.000000E+00  0.000000E+00  0.000000E+00  0.000000E+00  0.000000E+00  0.000000E+00  1.480593E-01 -4.139561E-03 -2.790202E-03  1.479751E-01                                                                                                                                                                                                                                                                                                                                                                                                                                                                                              
  1.475000E+03  1.250000E+02 -5.425000E+03  9.108109E-09  1.178853E-09  2.663275E-10 -9.027571E-09  4.976438E-11  6.478053E-12  1.463610E-12 -4.931923E-11  0.000000E+00  0.000000E+00  0.000000E+00  0.000000E+00  0.000000E+00  0.000000E+00  0.000000E+00  0.000000E+00  1.467574E-01 -8.707465E-03 -2.702596E-03  1.464740E-01                                                                                                                                                                                                                                                                                                                                                                                                                                                                                              
  1.725000E+03  1.250000E+02 -5.425000E+03  8.884169E-09  1.227995E-09  2.820370E-10 -8.794370E-09  4.857041E-11  6.750752E-12  1.550755E-12 -4.807398E-11  0.000000E+00  0.000000E+00  0.000000E+00  0.000000E+00  0.000000E+00  0.000000E+00  0.000000E+00  0.000000E+00  1.444306E-01 -9.053176E-03 -2.591988E-03  1.441233E-01                                                                                                                                                                                                                                                                                                                                                                                                                                                                                              
  1.975000E+03  1.250000E+02 -5.425000E+03  8.574307E-09  5.381974E-10  2.925590E-10 -8.552397E-09  4.689481E-11  2.959454E-12  1.609266E-12 -4.677366E-11  0.000000E+00  0.000000E+00  0.000000E+00  0.000000E+00  0.000000E+00  0.000000E+00  0.000000E+00  0.000000E+00  1.420181E-01 -3.949218E-03 -2.505258E-03  1.419411E-01                                                                                                                                                                                                                                                                                                                                                                                                                                                                                              
  1.250000E+02  1.250000E+02 -5.225000E+03  3.228363E-08  2.195552E-10 -2.117395E-10 -3.228219E-08  1.739123E-10  1.194316E-12 -1.152301E-12 -1.739044E-10  0.000000E+00  0.000000E+00  0.000000E+00  0.000000E+00  0.000000E+00  0.000000E+00  0.000000E+00  0.000000E+00  5.098944E-01  6.381515E-03 -3.573443E-03  5.098420E-01                                                                                                                                                                                                                                                                                                                                                                                                                                                                                              
  3.750000E+02  1.250000E+02 -5.225000E+03  3.260781E-08  5.291937E-10 -2.380462E-10 -3.260265E-08  1.755542E-10  2.877620E-12 -1.294753E-12 -1.755258E-10  0.000000E+00  0.000000E+00  0.000000E+00  0.000000E+00  0.000000E+00  0.000000E+00  0.000000E+00  0.000000E+00  5.200492E-01  1.421972E-02 -3.734526E-03  5.198414E-01                                                                                                                                                                                                                                                                                                                                                                                                                                                                                              
  6.250000E+02  1.250000E+02 -5.225000E+03  3.288222E-08  5.450449E-10 -2.731555E-10 -3.287657E-08  1.769092E-10  2.962332E-12 -1.484722E-12 -1.768782E-10  0.000000E+00  0.000000E+00  0.000000E+00  0.000000E+00  0.000000E+00  0.000000E+00  0.000000E+00  0.000000E+00  5.297499E-01  1.323201E-02 -3.936783E-03  5.295699E-01                                                                                                                                                                                                                                                                                                                                                                                                                                                                                              
  8.750000E+02  1.250000E+02 -5.225000E+03  3.299195E-08  2.709134E-10 -3.001982E-10 -3.298947E-08  1.774159E-10  1.471899E-12 -1.630967E-12 -1.774023E-10  0.000000E+00  0.000000E+00  0.000000E+00  0.000000E+00  0.000000E+00  0.000000E+00  0.000000E+00  0.000000E+00  5.355666E-01  6.338301E-03 -4.113342E-03  5.355133E-01                                                                                                                                                                                                                                                                                                                                                                                                                                                                                              
  1.050000E+03  1.250000E+02 -5.225000E+03  3.290808E-08 -1.326485E-14 -3.038941E-10 -3.290668E-08  1.769471E-10 -7.205342E-17 -1.650955E-12 -1.769394E-10  0.000000E+00  0.000000E+00  0.000000E+00  0.000000E+00  0.000000E+00  0.000000E+00  0.000000E+00  0.000000E+00  5.364067E-01 -7.078167E-09 -4.145707E-03  5.363906E-01                                                                                                                                                                                                                                                                                                                                                                                                                                                                                              
  1.225000E+03  1.250000E+02 -5.225000E+03  3.299197E-08 -2.709323E-10 -3.001991E-10 -3.298949E-08  1.774161E-10 -1.472002E-12 -1.630972E-12 -1.774025E-10  0.000000E+00  0.000000E+00  0.000000E+00  0.000000E+00  0.000000E+00  0.000000E+00  0.000000E+00  0.000000E+00  5.355666E-01 -6.338333E-03 -4.113351E-03  5.355133E-01                                                                                                                                                                                                                                                                                                                                                                                                                                                                                              
  1.475000E+03  1.250000E+02 -5.225000E+03  3.288219E-08 -5.450650E-10 -2.731529E-10 -3.287654E-08  1.769090E-10 -2.962441E-12 -1.484708E-12 -1.768780E-10  0.000000E+00  0.000000E+00  0.000000E+00  0.000000E+00  0.000000E+00  0.000000E+00  0.000000E+00  0.000000E+00  5.297499E-01 -1.323201E-02 -3.936771E-03  5.295700E-01                                                                                                                                                                                                                                                                                                                                                                                                                                                                                              
  1.725000E+03  1.250000E+02 -5.225000E+03  3.260785E-08 -5.291848E-10 -2.380462E-10 -3.260268E-08  1.755544E-10 -2.877572E-12 -1.294754E-12 -1.755260E-10  0.000000E+00  0.000000E+00  0.000000E+00  0.000000E+00  0.000000E+00  0.000000E+00  0.000000E+00  0.000000E+00  5.200492E-01 -1.421972E-02 -3.734528E-03  5.198413E-01                                                                                                                                                                                                                                                                                                                                                                                                                                                                                              
  1.975000E+03  1.250000E+02 -5.225000E+03  3.228366E-08 -2.195319E-10 -2.117302E-10 -3.228222E-08  1.739124E-10 -1.194190E-12 -1.152251E-12 -1.739045E-10  0.000000E+00  0.000000E+00  0.000000E+00  0.000000E+00  0.000000E+00  0.000000E+00  0.000000E+00  0.000000E+00  5.098944E-01 -6.381539E-03 -3.573418E-03  5.098419E-01                                                                                                                                                                                                                                                                                                                                                                                                                                                                                              
  1.250000E+02  1.250000E+02 -4.975000E+03  5.833841E-08  1.418879E-09 -7.436783E-10 -5.831641E-08  3.065686E-10  7.481048E-12 -3.923943E-12 -3.064522E-10  0.000000E+00  0.000000E+00  0.000000E+00  0.000000E+00  0.000000E+00  0.000000E+00  0.000000E+00  0.000000E+00  9.193583E-01  1.473259E-02 -6.172413E-03  9.192196E-01                                                                                                                                                                                                                                                                                                                                                                                                                                                                                              
  3.750000E+02  1.250000E+02 -4.975000E+03  5.722607E-08  3.088231E-09 -8.193089E-10 -5.713681E-08  3.004916E-10  1.627343E-11 -4.318639E-12 -3.000196E-10  0.000000E+00  0.000000E+00  0.000000E+00  0.000000E+00  0.000000E+00  0.000000E+00  0.000000E+00  0.000000E+00  9.491403E-01  3.051770E-02 -6.680158E-03  9.486260E-01                                                                                                                                                                                                                                                                                                                                                                                                                                                                                              
  6.250000E+02  1.250000E+02 -4.975000E+03  5.634773E-08  2.813306E-09 -9.121107E-10 -5.627007E-08  2.956359E-10  1.481225E-11 -4.802689E-12 -2.952256E-10  0.000000E+00  0.000000E+00  0.000000E+00  0.000000E+00  0.000000E+00  0.000000E+00  0.000000E+00  0.000000E+00  9.709471E-01  2.597503E-02 -7.292828E-03  9.705722E-01                                                                                                                                                                                                                                                                                                                                                                                                                                                                                              
  8.750000E+02  1.250000E+02 -4.975000E+03  5.574727E-08  1.354163E-09 -9.956809E-10 -5.572192E-08  2.923300E-10  7.125629E-12 -5.239202E-12 -2.921962E-10  0.000000E+00  0.000000E+00  0.000000E+00  0.000000E+00  0.000000E+00  0.000000E+00  0.000000E+00  0.000000E+00  9.830325E-01  1.208339E-02 -7.932763E-03  9.829262E-01                                                                                                                                                                                                                                                                                                                                                                                                                                                                                              
  1.050000E+03  1.250000E+02 -4.975000E+03  5.557395E-08 -3.374978E-15 -1.016083E-09 -5.556466E-08  2.914029E-10 -1.775361E-17 -5.346112E-12 -2.913539E-10  0.000000E+00  0.000000E+00  0.000000E+00  0.000000E+00  0.000000E+00  0.000000E+00  0.000000E+00  0.000000E+00  9.855860E-01 -3.256250E-09 -8.134003E-03  9.855524E-01                                                                                                                                                                                                                                                                                                                                                                                                                                                                                              
  1.225000E+03  1.250000E+02 -4.975000E+03  5.574726E-08 -1.354170E-09 -9.956793E-10 -5.572192E-08  2.923300E-10 -7.125665E-12 -5.239193E-12 -2.921961E-10  0.000000E+00  0.000000E+00  0.000000E+00  0.000000E+00  0.000000E+00  0.000000E+00  0.000000E+00  0.000000E+00  9.830325E-01 -1.208339E-02 -7.932745E-03  9.829262E-01                                                                                                                                                                                                                                                                                                                                                                                                                                                                                              
  1.475000E+03  1.250000E+02 -4.975000E+03  5.634773E-08 -2.813326E-09 -9.121124E-10 -5.627006E-08  2.956359E-10 -1.481235E-11 -4.802698E-12 -2.952255E-10  0.000000E+00  0.000000E+00  0.000000E+00  0.000000E+00  0.000000E+00  0.000000E+00  0.000000E+00  0.000000E+00  9.709472E-01 -2.597505E-02 -7.292820E-03  9.705722E-01                                                                                                                                                                                                                                                                                                                                                                                                                                                                                              
  1.725000E+03  1.250000E+02 -4.975000E+03  5.722606E-08 -3.088258E-09 -8.192916E-10 -5.713680E-08  3.004916E-10 -1.627358E-11 -4.318548E-12 -3.000195E-10  0.000000E+00  0.000000E+00  0.000000E+00  0.000000E+00  0.000000E+00  0.000000E+00  0.000000E+00  0.000000E+00  9.491403E-01 -3.051772E-02 -6.680142E-03  9.486260E-01                                                                                                                                                                                                                                                                                                                                                                                                                                                                                              
  1.975000E+03  1.250000E+02 -4.975000E+03  5.833841E-08 -1.418890E-09 -7.436446E-10 -5.831641E-08  3.065687E-10 -7.481104E-12 -3.923765E-12 -3.064523E-10  0.000000E+00  0.000000E+00  0.000000E+00  0.000000E+00  0.000000E+00  0.000000E+00  0.000000E+00  0.000000E+00  9.193584E-01 -1.473259E-02 -6.172386E-03  9.192196E-01                                                                                                                                                                                                                                                                                                                                                                                                                                                                                              
  1.250000E+02  1.250000E+02 -4.725000E+03  7.457626E-08  2.106275E-09 -6.477953E-10 -7.454370E-08  3.813016E-10  1.071773E-11 -3.300061E-12 -3.811366E-10  0.000000E+00  0.000000E+00  0.000000E+00  0.000000E+00  0.000000E+00  0.000000E+00  0.000000E+00  0.000000E+00  1.184027E+00  3.533539E-02 -9.982236E-03  1.183458E+00                                                                                                                                                                                                                                                                                                                                                                                                                                                                                              
  3.750000E+02  1.250000E+02 -4.725000E+03  6.947199E-08  4.005188E-09 -7.848160E-10 -6.935200E-08  3.548159E-10  2.036551E-11 -3.991374E-12 -3.542084E-10  0.000000E+00  0.000000E+00  0.000000E+00  0.000000E+00  0.000000E+00  0.000000E+00  0.000000E+00  0.000000E+00  1.268245E+00  6.469624E-02 -1.166607E-02  1.266540E+00                                                                                                                                                                                                                                                                                                                                                                                                                                                                                              
  6.250000E+02  1.250000E+02 -4.725000E+03  6.678522E-08  3.078330E-09 -9.338081E-10 -6.670770E-08  3.407586E-10  1.563365E-11 -4.742741E-12 -3.403667E-10  0.000000E+00  0.000000E+00  0.000000E+00  0.000000E+00  0.000000E+00  0.000000E+00  0.000000E+00  0.000000E+00  1.302236E+00  4.680824E-02 -1.351422E-02  1.301324E+00                                                                                                                                                                                                                                                                                                                                                                                                                                                                                              
  8.750000E+02  1.250000E+02 -4.725000E+03  6.522641E-08  1.476000E-09 -1.103175E-09 -6.520038E-08  3.326164E-10  7.490437E-12 -5.598733E-12 -3.324849E-10  0.000000E+00  0.000000E+00  0.000000E+00  0.000000E+00  0.000000E+00  0.000000E+00  0.000000E+00  0.000000E+00  1.319626E+00  2.205993E-02 -1.589250E-02  1.319346E+00                                                                                                                                                                                                                                                                                                                                                                                                                                                                                              
  1.050000E+03  1.250000E+02 -4.725000E+03  6.419256E-08  3.895712E-15 -1.207711E-09 -6.418120E-08  3.273492E-10  1.976296E-17 -6.128577E-12 -3.272918E-10  0.000000E+00  0.000000E+00  0.000000E+00  0.000000E+00  0.000000E+00  0.000000E+00  0.000000E+00  0.000000E+00  1.335172E+00 -1.402804E-10 -1.754596E-02  1.335057E+00                                                                                                                                                                                                                                                                                                                                                                                                                                                                                              
  1.225000E+03  1.250000E+02 -4.725000E+03  6.522641E-08 -1.476000E-09 -1.103179E-09 -6.520037E-08  3.326164E-10 -7.490439E-12 -5.598751E-12 -3.324849E-10  0.000000E+00  0.000000E+00  0.000000E+00  0.000000E+00  0.000000E+00  0.000000E+00  0.000000E+00  0.000000E+00  1.319626E+00 -2.205994E-02 -1.589250E-02  1.319346E+00                                                                                                                                                                                                                                                                                                                                                                                                                                                                                              
  1.475000E+03  1.250000E+02 -4.725000E+03  6.678522E-08 -3.078334E-09 -9.338133E-10 -6.670770E-08  3.407586E-10 -1.563367E-11 -4.742767E-12 -3.403667E-10  0.000000E+00  0.000000E+00  0.000000E+00  0.000000E+00  0.000000E+00  0.000000E+00  0.000000E+00  0.000000E+00  1.302236E+00 -4.680823E-02 -1.351421E-02  1.301324E+00                                                                                                                                                                                                                                                                                                                                                                                                                                                                                              
  1.725000E+03  1.250000E+02 -4.725000E+03  6.947198E-08 -4.005187E-09 -7.848238E-10 -6.935199E-08  3.548158E-10 -2.036550E-11 -3.991413E-12 -3.542084E-10  0.000000E+00  0.000000E+00  0.000000E+00  0.000000E+00  0.000000E+00  0.000000E+00  0.000000E+00  0.000000E+00  1.268245E+00 -6.469621E-02 -1.166607E-02  1.266540E+00                                                                                                                                                                                                                                                                                                                                                                                                                                                                                              