Title="TOUGHREACT V3.30-OMP flowdata.tec: P,T,SAT & Other Variables"                                                                                                                                                                                                                                                                                                                                                                                                                                                                                                                                                                                                                                                                                                                                                            
Variables= "X(m)"     "Y(m)"      "Z(m)"       "P(Pa)"        "T(C)"      "SatGas"      "SatLiq"          "X1"          "X2"    "Pcap(Pa)"  "DGas_kg/m3"  "DLiq_kg/m3"    "Porosity"  "Perm_X(m2)"  "Perm_Y(m2)"  "Perm_Z(m2)"    "Krel_Gas"    "Krel_Liq"                                                                                                                                                                                                                                                                                                                                                                                                                                                                                                                                                                      
Zone T= "3.15569000E+08 sec" I=     9 J=    10 K=    23 F=Point
  1.250000E+02  1.250000E+02 -5.425000E+03  5.899701E+07  2.319248E+02  0.000000E+00  1.000000E+00  1.000000E+00  0.000000E+00  0.000000E+00  1.449616E+01  8.697385E+02  1.998399E-01  1.100000E-17  1.100000E-17  1.100000E-17  0.000000E+00  1.000000E+00                                                                                                                                                                                                                                                                                                                                                                                                                                                                                                                                                                    
  3.750000E+02  1.250000E+02 -5.425000E+03  5.894834E+07  2.319219E+02  0.000000E+00  1.000000E+00  1.000000E+00  0.000000E+00  0.000000E+00  1.449538E+01  8.697093E+02  1.998087E-01  1.100000E-17  1.100000E-17  1.100000E-17  0.000000E+00  1.000000E+00                                                                                                                                                                                                                                                                                                                                                                                                                                                                                                                                                                    
  6.250000E+02  1.250000E+02 -5.425000E+03  5.867913E+07  2.318996E+02  0.000000E+00  1.000000E+00  1.000000E+00  0.000000E+00  0.000000E+00  1.448951E+01  8.695544E+02  1.996365E-01  1.100000E-17  1.100000E-17  1.100000E-17  0.000000E+00  1.000000E+00                                                                                                                                                                                                                                                                                                                                                                                                                                                                                                                                                                    
  8.750000E+02  1.250000E+02 -5.425000E+03  5.767012E+07  2.303317E+02  0.000000E+00  1.000000E+00  1.000000E+00  0.000000E+00  0.000000E+00  1.408102E+01  8.705823E+02  1.989836E-01  1.100000E-17  1.100000E-17  1.100000E-17  0.000000E+00  1.000000E+00                                                                                                                                                                                                                                                                                                                                                                                                                                                                                                                                                                    
  1.050000E+03  1.250000E+02 -5.425000E+03  5.715967E+07  9.663220E+01  0.000000E+00  1.000000E+00  1.000000E+00  0.000000E+00  0.000000E+00  5.335114E-01  9.855583E+02  2.967944E-01  1.100000E-10  1.100000E-10  1.100000E-10  0.000000E+00  1.000000E+00                                                                                                                                                                                                                                                                                                                                                                                                                                                                                                                                                                    
  1.225000E+03  1.250000E+02 -5.425000E+03  5.767012E+07  2.303317E+02  0.000000E+00  1.000000E+00  1.000000E+00  0.000000E+00  0.000000E+00  1.408102E+01  8.705823E+02  1.989836E-01  1.100000E-17  1.100000E-17  1.100000E-17  0.000000E+00  1.000000E+00                                                                                                                                                                                                                                                                                                                                                                                                                                                                                                                                                                    
  1.475000E+03  1.250000E+02 -5.425000E+03  5.867913E+07  2.318996E+02  0.000000E+00  1.000000E+00  1.000000E+00  0.000000E+00  0.000000E+00  1.448951E+01  8.695544E+02  1.996365E-01  1.100000E-17  1.100000E-17  1.100000E-17  0.000000E+00  1.000000E+00                                                                                                                                                                                                                                                                                                                                                                                                                                                                                                                                                                    
  1.725000E+03  1.250000E+02 -5.425000E+03  5.894834E+07  2.319219E+02  0.000000E+00  1.000000E+00  1.000000E+00  0.000000E+00  0.000000E+00  1.449538E+01  8.697093E+02  1.998087E-01  1.100000E-17  1.100000E-17  1.100000E-17  0.000000E+00  1.000000E+00                                                                                                                                                                                                                                                                                                                                                                                                                                                                                                                                                                    
  1.975000E+03  1.250000E+02 -5.425000E+03  5.899701E+07  2.319248E+02  0.000000E+00  1.000000E+00  1.000000E+00  0.000000E+00  0.000000E+00  1.449616E+01  8.697385E+02  1.998399E-01  1.100000E-17  1.100000E-17  1.100000E-17  0.000000E+00  1.000000E+00                                                                                                                                                                                                                                                                                                                                                                                                                                                                                                                                                                    
  1.250000E+02  1.250000E+02 -5.225000E+03  5.714093E+07  2.239952E+02  0.000000E+00  1.000000E+00  1.000000E+00  0.000000E+00  0.000000E+00  1.252701E+01  8.770253E+02  1.999381E-01  1.100000E-17  1.100000E-17  1.100000E-17  0.000000E+00  1.000000E+00                                                                                                                                                                                                                                                                                                                                                                                                                                                                                                                                                                    
  3.750000E+02  1.250000E+02 -5.225000E+03  5.709533E+07  2.239925E+02  0.000000E+00  1.000000E+00  1.000000E+00  0.000000E+00  0.000000E+00  1.252639E+01  8.769988E+02  1.999089E-01  1.100000E-17  1.100000E-17  1.100000E-17  0.000000E+00  1.000000E+00                                                                                                                                                                                                                                                                                                                                                                                                                                                                                                                                                                    
  6.250000E+02  1.250000E+02 -5.225000E+03  5.683745E+07  2.239719E+02  0.000000E+00  1.000000E+00  1.000000E+00  0.000000E+00  0.000000E+00  1.252158E+01  8.768546E+02  1.997439E-01  1.100000E-17  1.100000E-17  1.100000E-17  0.000000E+00  1.000000E+00                                                                                                                                                                                                                                                                                                                                                                                                                                                                                                                                                                    
  8.750000E+02  1.250000E+02 -5.225000E+03  5.584295E+07  2.225233E+02  0.000000E+00  1.000000E+00  1.000000E+00  0.000000E+00  0.000000E+00  1.218731E+01  8.777515E+02  1.991005E-01  1.100000E-17  1.100000E-17  1.100000E-17  0.000000E+00  1.000000E+00                                                                                                                                                                                                                                                                                                                                                                                                                                                                                                                                                                    
  1.050000E+03  1.250000E+02 -5.225000E+03  5.523292E+07  1.030299E+02  0.000000E+00  1.000000E+00  1.000000E+00  0.000000E+00  0.000000E+00  6.607662E-01  9.805592E+02  2.970009E-01  1.100000E-10  1.100000E-10  1.100000E-10  0.000000E+00  1.000000E+00                                                                                                                                                                                                                                                                                                                                                                                                                                                                                                                                                                    
  1.225000E+03  1.250000E+02 -5.225000E+03  5.584295E+07  2.225233E+02  0.000000E+00  1.000000E+00  1.000000E+00  0.000000E+00  0.000000E+00  1.218731E+01  8.777515E+02  1.991005E-01  1.100000E-17  1.100000E-17  1.100000E-17  0.000000E+00  1.000000E+00                                                                                                                                                                                                                                                                                                                                                                                                                                                                                                                                                                    
  1.475000E+03  1.250000E+02 -5.225000E+03  5.683745E+07  2.239719E+02  0.000000E+00  1.000000E+00  1.000000E+00  0.000000E+00  0.000000E+00  1.252158E+01  8.768546E+02  1.997439E-01  1.100000E-17  1.100000E-17  1.100000E-17  0.000000E+00  1.000000E+00                                                                                                                                                                                                                                                                                                                                                                                                                                                                                                                                                                    
  1.725000E+03  1.250000E+02 -5.225000E+03  5.709533E+07  2.239925E+02  0.000000E+00  1.000000E+00  1.000000E+00  0.000000E+00  0.000000E+00  1.252639E+01  8.769988E+02  1.999089E-01  1.100000E-17  1.100000E-17  1.100000E-17  0.000000E+00  1.000000E+00                                                                                                                                                                                                                                                                                                                                                                                                                                                                                                                                                                    
  1.975000E+03  1.250000E+02 -5.225000E+03  5.714093E+07  2.239952E+02  0.000000E+00  1.000000E+00  1.000000E+00  0.000000E+00  0.000000E+00  1.252701E+01  8.770253E+02  1.999381E-01  1.100000E-17  1.100000E-17  1.100000E-17  0.000000E+00  1.000000E+00                                                                                                                                                                                                                                                                                                                                                                                                                                                                                                                                                                    
  1.250000E+02  1.250000E+02 -4.975000E+03  5.450525E+07  2.139903E+02  0.000000E+00  1.000000E+00  1.000000E+00  0.000000E+00  0.000000E+00  1.036490E+01  8.858382E+02  1.998585E-01  1.100000E-17  1.100000E-17  1.100000E-17  0.000000E+00  1.000000E+00                                                                                                                                                                                                                                                                                                                                                                                                                                                                                                                                                                    
  3.750000E+02  1.250000E+02 -4.975000E+03  5.447000E+07  2.139884E+02  0.000000E+00  1.000000E+00  1.000000E+00  0.000000E+00  0.000000E+00  1.036451E+01  8.858184E+02  1.998359E-01  1.100000E-17  1.100000E-17  1.100000E-17  0.000000E+00  1.000000E+00                                                                                                                                                                                                                                                                                                                                                                                                                                                                                                                                                                    
  6.250000E+02  1.250000E+02 -4.975000E+03  5.425815E+07  2.139715E+02  0.000000E+00  1.000000E+00  1.000000E+00  0.000000E+00  0.000000E+00  1.036114E+01  8.857045E+02  1.997004E-01  1.100000E-17  1.100000E-17  1.100000E-17  0.000000E+00  1.000000E+00                                                                                                                                                                                                                                                                                                                                                                                                                                                                                                                                                                    
  8.750000E+02  1.250000E+02 -4.975000E+03  5.340423E+07  2.126931E+02  0.000000E+00  1.000000E+00  1.000000E+00  0.000000E+00  0.000000E+00  1.010868E+01  8.864965E+02  1.991478E-01  1.100000E-17  1.100000E-17  1.100000E-17  0.000000E+00  1.000000E+00                                                                                                                                                                                                                                                                                                                                                                                                                                                                                                                                                                    
  1.050000E+03  1.250000E+02 -4.975000E+03  5.283797E+07  1.102967E+02  0.000000E+00  1.000000E+00  1.000000E+00  0.000000E+00  0.000000E+00  8.342294E-01  9.745893E+02  2.972655E-01  1.100000E-10  1.100000E-10  1.100000E-10  0.000000E+00  1.000000E+00                                                                                                                                                                                                                                                                                                                                                                                                                                                                                                                                                                    
  1.225000E+03  1.250000E+02 -4.975000E+03  5.340423E+07  2.126931E+02  0.000000E+00  1.000000E+00  1.000000E+00  0.000000E+00  0.000000E+00  1.010868E+01  8.864965E+02  1.991478E-01  1.100000E-17  1.100000E-17  1.100000E-17  0.000000E+00  1.000000E+00                                                                                                                                                                                                                                                                                                                                                                                                                                                                                                                                                                    
  1.475000E+03  1.250000E+02 -4.975000E+03  5.425815E+07  2.139715E+02  0.000000E+00  1.000000E+00  1.000000E+00  0.000000E+00  0.000000E+00  1.036114E+01  8.857045E+02  1.997004E-01  1.100000E-17  1.100000E-17  1.100000E-17  0.000000E+00  1.000000E+00                                                                                                                                                                                                                                                                                                                                                                                                                                                                                                                                                                    
  1.725000E+03  1.250000E+02 -4.975000E+03  5.447000E+07  2.139884E+02  0.000000E+00  1.000000E+00  1.000000E+00  0.000000E+00  0.000000E+00  1.036451E+01  8.858184E+02  1.998359E-01  1.100000E-17  1.100000E-17  1.100000E-17  0.000000E+00  1.000000E+00                                                                                                                                                                                                                                                                                                                                                                                                                                                                                                                                                                    
  1.975000E+03  1.250000E+02 -4.975000E+03  5.450525E+07  2.139903E+02  0.000000E+00  1.000000E+00  1.000000E+00  0.000000E+00  0.000000E+00  1.036490E+01  8.858382E+02  1.998585E-01  1.100000E-17  1.100000E-17  1.100000E-17  0.000000E+00  1.000000E+00                                                                                                                                                                                                                                                                                                                                                                                                                                                                                                                                                                    
  1.250000E+02  1.250000E+02 -4.725000E+03  5.125542E+07  2.039555E+02  0.000000E+00  1.000000E+00  1.000000E+00  0.000000E+00  0.000000E+00  8.514762E+00  8.941003E+02  1.993864E-01  1.100000E-17  1.100000E-17  1.100000E-17  0.000000E+00  1.000000E+00                                                                                                                                                                                                                                                                                                                                                                                                                                                                                                                                                                    
  3.750000E+02  1.250000E+02 -4.725000E+03  5.124596E+07  2.039532E+02  0.000000E+00  1.000000E+00  1.000000E+00  0.000000E+00  0.000000E+00  8.514372E+00  8.940969E+02  1.993804E-01  1.100000E-17  1.100000E-17  1.100000E-17  0.000000E+00  1.000000E+00                                                                                                                                                                                                                                                                                                                                                                                                                                                                                                                                                                    
  6.250000E+02  1.250000E+02 -4.725000E+03  5.115138E+07  2.039302E+02  0.000000E+00  1.000000E+00  1.000000E+00  0.000000E+00  0.000000E+00  8.510464E+00  8.940635E+02  1.993199E-01  1.100000E-17  1.100000E-17  1.100000E-17  0.000000E+00  1.000000E+00                                                                                                                                                                                                                                                                                                                                                                                                                                                                                                                                                                    
  8.750000E+02  1.250000E+02 -4.725000E+03  5.070703E+07  2.027275E+02  0.000000E+00  1.000000E+00  1.000000E+00  0.000000E+00  0.000000E+00  8.308235E+00  8.950082E+02  1.990295E-01  1.100000E-17  1.100000E-17  1.100000E-17  0.000000E+00  1.000000E+00                                                                                                                                                                                                                                                                                                                                                                                                                                                                                                                                                                    
  1.050000E+03  1.250000E+02 -4.725000E+03  5.045907E+07  1.187633E+02  0.000000E+00  1.000000E+00  1.000000E+00  0.000000E+00  0.000000E+00  1.081129E+00  9.675321E+02  2.975564E-01  1.100000E-10  1.100000E-10  1.100000E-10  0.000000E+00  1.000000E+00                                                                                                                                                                                                                                                                                                                                                                                                                                                                                                                                                                    
  1.225000E+03  1.250000E+02 -4.725000E+03  5.070703E+07  2.027275E+02  0.000000E+00  1.000000E+00  1.000000E+00  0.000000E+00  0.000000E+00  8.308235E+00  8.950082E+02  1.990295E-01  1.100000E-17  1.100000E-17  1.100000E-17  0.000000E+00  1.000000E+00                                                                                                                                                                                                                                                                                                                                                                                                                                                                                                                                                                    
  1.475000E+03  1.250000E+02 -4.725000E+03  5.115138E+07  2.039302E+02  0.000000E+00  1.000000E+00  1.000000E+00  0.000000E+00  0.000000E+00  8.510464E+00  8.940635E+02  1.993199E-01  1.100000E-17  1.100000E-17  1.100000E-17  0.000000E+00  1.000000E+00                                                                                                                                                                                                                                                                                                                                                                                                                                                                                                                                                                    
  1.725000E+03  1.250000E+02 -4.725000E+03  5.124596E+07  2.039532E+02  0.000000E+00  1.000000E+00  1.000000E+00  0.000000E+00  0.000000E+00  8.514372E+00  8.940969E+02  1.993804E-01  1.100000E-17  1.100000E-17  1.100000E-17  0.000000E+00  1.000000E+00                                                                                                                                                                                                                                                                                                                                                                                                                                                                                                                                                                    