Title="TOUGHREACT V3.30-OMP flowvector.tec: Liq & Gas Fluxes (kg/s/m^2), Pore Velocities (m/s), & Heat Fluxes (J/s/m2)"                                                                                                                                                                                                                                                                                                                                                                                                                                                                                                                                                                                                                                                                                                         
Variables= "X(m)"     "Y(m)"      "Z(m)"     "FluxLiq"   "FluxLiq_X"   "FluxLiq_Y"   "FluxLiq_Z"   "PorVelLiq"  "PorVelLiqX"  "PorVelLiqY"  "PorVelLiqZ"     "FluxGas"   "FluxGas_X"   "FluxGas_Y"   "FluxGas_Z"   "PorVelGas"  "PorVelGasX"  "PorVelGasY"  "PorVelGasZ"    "HeatFlux"  "HeatFlux_X"  "HeatFlux_Y"  "HeatFlux_Z"                                                                                                                                                                                                                                                                                                                                                                                                                                                                                                
Zone T= "1.00000000E+06 sec" I=     9 J=    10 K=    23 F=Point
  1.250000E+02  1.250000E+02 -5.425000E+03  3.381984E-07 -1.517292E-15 -1.007774E-17  3.381984E-07  1.862363E-09 -8.381024E-18 -5.566614E-20  1.862363E-09  0.000000E+00  0.000000E+00  0.000000E+00  0.000000E+00  0.000000E+00  0.000000E+00  0.000000E+00  0.000000E+00  3.814514E-01 -1.370717E-09 -1.380203E-11  3.814514E-01                                                                                                                                                                                                                                                                                                                                                                                                                                                                                              
  3.750000E+02  1.250000E+02 -5.425000E+03  3.381984E-07 -6.004254E-16  2.267546E-15  3.381984E-07  1.862363E-09 -3.316553E-18  1.252518E-17  1.862363E-09  0.000000E+00  0.000000E+00  0.000000E+00  0.000000E+00  0.000000E+00  0.000000E+00  0.000000E+00  0.000000E+00  3.814514E-01 -5.028406E-10  2.047528E-09  3.814514E-01                                                                                                                                                                                                                                                                                                                                                                                                                                                                                              
  6.250000E+02  1.250000E+02 -5.425000E+03  3.381984E-07 -2.252407E-13  2.156907E-16  3.381984E-07  1.862363E-09 -1.244156E-15  1.191405E-18  1.862363E-09  0.000000E+00  0.000000E+00  0.000000E+00  0.000000E+00  0.000000E+00  0.000000E+00  0.000000E+00  0.000000E+00  3.814514E-01 -1.958487E-07  1.933566E-10  3.814514E-01                                                                                                                                                                                                                                                                                                                                                                                                                                                                                              
  8.750000E+02  1.250000E+02 -5.425000E+03  3.381987E-07 -2.698366E-11  7.720362E-16  3.381987E-07  1.862365E-09 -1.490489E-13  4.264475E-18  1.862365E-09  0.000000E+00  0.000000E+00  0.000000E+00  0.000000E+00  0.000000E+00  0.000000E+00  0.000000E+00  0.000000E+00  3.814516E-01 -2.434177E-05  6.914097E-10  3.814516E-01                                                                                                                                                                                                                                                                                                                                                                                                                                                                                              
  1.050000E+03  1.250000E+02 -5.425000E+03  3.382221E-07  7.609890E-16  3.136030E-16  3.382221E-07  1.862494E-09  4.203454E-18  1.732241E-18  1.862494E-09  0.000000E+00  0.000000E+00  0.000000E+00  0.000000E+00  0.000000E+00  0.000000E+00  0.000000E+00  0.000000E+00  3.814728E-01  6.835758E-10  2.732493E-10  3.814728E-01                                                                                                                                                                                                                                                                                                                                                                                                                                                                                              
  1.225000E+03  1.250000E+02 -5.425000E+03  3.381987E-07  2.698409E-11  2.067066E-17  3.381987E-07  1.862365E-09  1.490513E-13  1.141780E-19  1.862365E-09  0.000000E+00  0.000000E+00  0.000000E+00  0.000000E+00  0.000000E+00  0.000000E+00  0.000000E+00  0.000000E+00  3.814516E-01  2.434215E-05  1.602607E-11  3.814516E-01                                                                                                                                                                                                                                                                                                                                                                                                                                                                                              
  1.475000E+03  1.250000E+02 -5.425000E+03  3.381984E-07  2.260665E-13 -6.531098E-17  3.381984E-07  1.862363E-09  1.248717E-15 -3.607565E-19  1.862363E-09  0.000000E+00  0.000000E+00  0.000000E+00  0.000000E+00  0.000000E+00  0.000000E+00  0.000000E+00  0.000000E+00  3.814514E-01  1.965981E-07 -5.081008E-11  3.814514E-01                                                                                                                                                                                                                                                                                                                                                                                                                                                                                              
  1.725000E+03  1.250000E+02 -5.425000E+03  3.381984E-07  8.786162E-16  2.771424E-16  3.381984E-07  1.862363E-09  4.853188E-18  1.530844E-18  1.862363E-09  0.000000E+00  0.000000E+00  0.000000E+00  0.000000E+00  0.000000E+00  0.000000E+00  0.000000E+00  0.000000E+00  3.814514E-01  7.514117E-10  2.557200E-10  3.814514E-01                                                                                                                                                                                                                                                                                                                                                                                                                                                                                              
  1.975000E+03  1.250000E+02 -5.425000E+03  3.381984E-07  6.406460E-16  2.096441E-16  3.381984E-07  1.862363E-09  3.538719E-18  1.158005E-18  1.862363E-09  0.000000E+00  0.000000E+00  0.000000E+00  0.000000E+00  0.000000E+00  0.000000E+00  0.000000E+00  0.000000E+00  3.814514E-01  5.741816E-10  1.865858E-10  3.814514E-01                                                                                                                                                                                                                                                                                                                                                                                                                                                                                              
  1.250000E+02  1.250000E+02 -5.225000E+03  6.610693E-07  9.936603E-17  6.776961E-17  6.610693E-07  3.628237E-09  5.454962E-19  3.720392E-19  3.628237E-09  0.000000E+00  0.000000E+00  0.000000E+00  0.000000E+00  0.000000E+00  0.000000E+00  0.000000E+00  0.000000E+00  7.396375E-01  8.423028E-11  5.875821E-11  7.396375E-01                                                                                                                                                                                                                                                                                                                                                                                                                                                                                              
  3.750000E+02  1.250000E+02 -5.225000E+03  6.610693E-07  2.365808E-16  6.957739E-18  6.610693E-07  3.628237E-09  1.298773E-18  3.819635E-20  3.628237E-09  0.000000E+00  0.000000E+00  0.000000E+00  0.000000E+00  0.000000E+00  0.000000E+00  0.000000E+00  0.000000E+00  7.396375E-01  2.008367E-10  5.739099E-12  7.396375E-01                                                                                                                                                                                                                                                                                                                                                                                                                                                                                              
  6.250000E+02  1.250000E+02 -5.225000E+03  6.610693E-07 -3.267853E-15 -1.156008E-16  6.610693E-07  3.628237E-09 -1.793975E-17 -6.346210E-19  3.628237E-09  0.000000E+00  0.000000E+00  0.000000E+00  0.000000E+00  0.000000E+00  0.000000E+00  0.000000E+00  0.000000E+00  7.396375E-01 -2.741698E-09 -1.006775E-10  7.396375E-01                                                                                                                                                                                                                                                                                                                                                                                                                                                                                              
  8.750000E+02  1.250000E+02 -5.225000E+03  6.610696E-07 -2.689635E-13 -2.104959E-17  6.610696E-07  3.628239E-09 -1.476546E-15 -1.155573E-19  3.628239E-09  0.000000E+00  0.000000E+00  0.000000E+00  0.000000E+00  0.000000E+00  0.000000E+00  0.000000E+00  0.000000E+00  7.396378E-01 -2.256495E-07 -1.845343E-11  7.396378E-01                                                                                                                                                                                                                                                                                                                                                                                                                                                                                              
  1.050000E+03  1.250000E+02 -5.225000E+03  6.610933E-07  9.667515E-17 -8.262866E-17  6.610933E-07  3.628369E-09  5.307239E-19 -4.536119E-19  3.628369E-09  0.000000E+00  0.000000E+00  0.000000E+00  0.000000E+00  0.000000E+00  0.000000E+00  0.000000E+00  0.000000E+00  7.396591E-01  8.418752E-11 -7.182641E-11  7.396591E-01                                                                                                                                                                                                                                                                                                                                                                                                                                                                                              
  1.225000E+03  1.250000E+02 -5.225000E+03  6.610696E-07  2.690382E-13 -1.034842E-16  6.610696E-07  3.628239E-09  1.476957E-15 -5.681042E-19  3.628239E-09  0.000000E+00  0.000000E+00  0.000000E+00  0.000000E+00  0.000000E+00  0.000000E+00  0.000000E+00  0.000000E+00  7.396378E-01  2.257145E-07 -9.015101E-11  7.396378E-01                                                                                                                                                                                                                                                                                                                                                                                                                                                                                              
  1.475000E+03  1.250000E+02 -5.225000E+03  6.610693E-07  3.152508E-15 -4.837789E-17  6.610693E-07  3.628237E-09  1.730653E-17 -2.655832E-19  3.628237E-09  0.000000E+00  0.000000E+00  0.000000E+00  0.000000E+00  0.000000E+00  0.000000E+00  0.000000E+00  0.000000E+00  7.396375E-01  2.641369E-09 -4.214916E-11  7.396375E-01                                                                                                                                                                                                                                                                                                                                                                                                                                                                                              
  1.725000E+03  1.250000E+02 -5.225000E+03  6.610693E-07 -2.801791E-16 -4.987702E-17  6.610693E-07  3.628237E-09 -1.538117E-18 -2.738131E-19  3.628237E-09  0.000000E+00  0.000000E+00  0.000000E+00  0.000000E+00  0.000000E+00  0.000000E+00  0.000000E+00  0.000000E+00  7.396375E-01 -2.391445E-10 -4.371351E-11  7.396375E-01                                                                                                                                                                                                                                                                                                                                                                                                                                                                                              
  1.975000E+03  1.250000E+02 -5.225000E+03  6.610693E-07 -4.958601E-17  1.646929E-16  6.610693E-07  3.628237E-09 -2.722156E-19  9.041255E-19  3.628237E-09  0.000000E+00  0.000000E+00  0.000000E+00  0.000000E+00  0.000000E+00  0.000000E+00  0.000000E+00  0.000000E+00  7.396375E-01 -4.138509E-11  1.434531E-10  7.396375E-01                                                                                                                                                                                                                                                                                                                                                                                                                                                                                              
  1.250000E+02  1.250000E+02 -4.975000E+03  6.775045E-07  6.767275E-15 -1.165863E-16  6.775045E-07  3.691303E-09  3.687465E-17 -6.352747E-19  3.691303E-09  0.000000E+00  0.000000E+00  0.000000E+00  0.000000E+00  0.000000E+00  0.000000E+00  0.000000E+00  0.000000E+00  7.293785E-01  5.413467E-09 -9.547392E-11  7.293785E-01                                                                                                                                                                                                                                                                                                                                                                                                                                                                                              
  3.750000E+02  1.250000E+02 -4.975000E+03  6.775050E-07  2.046793E-14  4.180120E-17  6.775050E-07  3.691306E-09  1.115290E-16  2.277733E-19  3.691306E-09  0.000000E+00  0.000000E+00  0.000000E+00  0.000000E+00  0.000000E+00  0.000000E+00  0.000000E+00  0.000000E+00  7.293790E-01  1.637911E-08  3.554183E-11  7.293790E-01                                                                                                                                                                                                                                                                                                                                                                                                                                                                                              
  6.250000E+02  1.250000E+02 -4.975000E+03  6.775062E-07  3.425200E-14  3.748635E-17  6.775062E-07  3.691313E-09  1.866380E-16  2.042618E-19  3.691313E-09  0.000000E+00  0.000000E+00  0.000000E+00  0.000000E+00  0.000000E+00  0.000000E+00  0.000000E+00  0.000000E+00  7.293799E-01  2.741476E-08  3.016627E-11  7.293799E-01                                                                                                                                                                                                                                                                                                                                                                                                                                                                                              
  8.750000E+02  1.250000E+02 -4.975000E+03  6.775079E-07  4.350487E-14 -9.207861E-17  6.775079E-07  3.691322E-09  2.370566E-16 -5.017332E-19  3.691322E-09  0.000000E+00  0.000000E+00  0.000000E+00  0.000000E+00  0.000000E+00  0.000000E+00  0.000000E+00  0.000000E+00  7.293813E-01  3.481991E-08 -7.647842E-11  7.293813E-01                                                                                                                                                                                                                                                                                                                                                                                                                                                                                              
  1.050000E+03  1.250000E+02 -4.975000E+03  6.775095E-07 -1.919756E-16 -2.122464E-17  6.775095E-07  3.691331E-09 -1.046068E-18 -1.156523E-19  3.691331E-09  0.000000E+00  0.000000E+00  0.000000E+00  0.000000E+00  0.000000E+00  0.000000E+00  0.000000E+00  0.000000E+00  7.293826E-01 -1.596627E-10 -1.695151E-11  7.293826E-01                                                                                                                                                                                                                                                                                                                                                                                                                                                                                              
  1.225000E+03  1.250000E+02 -4.975000E+03  6.775079E-07 -4.350722E-14  9.155844E-17  6.775079E-07  3.691322E-09 -2.370693E-16  4.988988E-19  3.691322E-09  0.000000E+00  0.000000E+00  0.000000E+00  0.000000E+00  0.000000E+00  0.000000E+00  0.000000E+00  0.000000E+00  7.293813E-01 -3.482300E-08  7.603875E-11  7.293813E-01                                                                                                                                                                                                                                                                                                                                                                                                                                                                                              
  1.475000E+03  1.250000E+02 -4.975000E+03  6.775062E-07 -3.400591E-14  5.960636E-18  6.775062E-07  3.691313E-09 -1.852971E-16  3.247930E-20  3.691313E-09  0.000000E+00  0.000000E+00  0.000000E+00  0.000000E+00  0.000000E+00  0.000000E+00  0.000000E+00  0.000000E+00  7.293799E-01 -2.721022E-08  6.043418E-12  7.293799E-01                                                                                                                                                                                                                                                                                                                                                                                                                                                                                              
  1.725000E+03  1.250000E+02 -4.975000E+03  6.775050E-07 -2.058752E-14 -9.652137E-17  6.775050E-07  3.691306E-09 -1.121807E-16 -5.259417E-19  3.691306E-09  0.000000E+00  0.000000E+00  0.000000E+00  0.000000E+00  0.000000E+00  0.000000E+00  0.000000E+00  0.000000E+00  7.293790E-01 -1.647672E-08 -7.888759E-11  7.293790E-01                                                                                                                                                                                                                                                                                                                                                                                                                                                                                              
  1.975000E+03  1.250000E+02 -4.975000E+03  6.775045E-07 -6.943314E-15 -1.001455E-16  6.775045E-07  3.691303E-09 -3.783388E-17 -5.456894E-19  3.691303E-09  0.000000E+00  0.000000E+00  0.000000E+00  0.000000E+00  0.000000E+00  0.000000E+00  0.000000E+00  0.000000E+00  7.293785E-01 -5.559056E-09 -8.333577E-11  7.293785E-01                                                                                                                                                                                                                                                                                                                                                                                                                                                                                              
  1.250000E+02  1.250000E+02 -4.725000E+03  5.507884E-06  5.409638E-13 -4.139479E-15  5.507884E-06  2.975460E-08  2.926960E-15 -2.239723E-17  2.975460E-08  0.000000E+00  0.000000E+00  0.000000E+00  0.000000E+00  0.000000E+00  0.000000E+00  0.000000E+00  0.000000E+00  4.383786E+00  4.119248E-07 -3.412704E-09  4.383786E+00                                                                                                                                                                                                                                                                                                                                                                                                                                                                                              
  3.750000E+02  1.250000E+02 -4.725000E+03  5.507889E-06  1.624272E-12 -1.451876E-15  5.507889E-06  2.975462E-08  8.788348E-15 -7.855576E-18  2.975462E-08  0.000000E+00  0.000000E+00  0.000000E+00  0.000000E+00  0.000000E+00  0.000000E+00  0.000000E+00  0.000000E+00  4.383790E+00  1.237251E-06 -1.180233E-09  4.383790E+00                                                                                                                                                                                                                                                                                                                                                                                                                                                                                              
  6.250000E+02  1.250000E+02 -4.725000E+03  5.507898E-06  2.704458E-12  4.401136E-16  5.507898E-06  2.975467E-08  1.463284E-14  2.381296E-18  2.975467E-08  0.000000E+00  0.000000E+00  0.000000E+00  0.000000E+00  0.000000E+00  0.000000E+00  0.000000E+00  0.000000E+00  4.383796E+00  2.060334E-06  2.947459E-10  4.383796E+00                                                                                                                                                                                                                                                                                                                                                                                                                                                                                              
  8.750000E+02  1.250000E+02 -4.725000E+03  5.507911E-06  3.605420E-12 -9.685392E-16  5.507911E-06  2.975474E-08  1.950762E-14 -5.240416E-18  2.975474E-08  0.000000E+00  0.000000E+00  0.000000E+00  0.000000E+00  0.000000E+00  0.000000E+00  0.000000E+00  0.000000E+00  4.383806E+00  2.746511E-06 -8.747604E-10  4.383806E+00                                                                                                                                                                                                                                                                                                                                                                                                                                                                                              
  1.050000E+03  1.250000E+02 -4.725000E+03  5.507923E-06 -2.812506E-15 -4.352160E-15  5.507923E-06  2.975482E-08 -1.521745E-17 -2.354796E-17  2.975482E-08  0.000000E+00  0.000000E+00  0.000000E+00  0.000000E+00  0.000000E+00  0.000000E+00  0.000000E+00  0.000000E+00  4.383805E+00 -2.331225E-09 -3.395451E-09  4.383805E+00                                                                                                                                                                                                                                                                                                                                                                                                                                                                                              
  1.225000E+03  1.250000E+02 -4.725000E+03  5.507911E-06 -3.603453E-12 -8.448038E-16  5.507911E-06  2.975474E-08 -1.949698E-14 -4.570928E-18  2.975474E-08  0.000000E+00  0.000000E+00  0.000000E+00  0.000000E+00  0.000000E+00  0.000000E+00  0.000000E+00  0.000000E+00  4.383806E+00 -2.744884E-06 -6.591293E-10  4.383806E+00                                                                                                                                                                                                                                                                                                                                                                                                                                                                                              
  1.475000E+03  1.250000E+02 -4.725000E+03  5.507898E-06 -2.699127E-12 -5.324479E-15  5.507898E-06  2.975467E-08 -1.460400E-14 -2.880883E-17  2.975467E-08  0.000000E+00  0.000000E+00  0.000000E+00  0.000000E+00  0.000000E+00  0.000000E+00  0.000000E+00  0.000000E+00  4.383796E+00 -2.056022E-06 -4.371132E-09  4.383796E+00                                                                                                                                                                                                                                                                                                                                                                                                                                                                                              
  1.725000E+03  1.250000E+02 -4.725000E+03  5.507889E-06 -1.630662E-12 -6.215457E-15  5.507889E-06  2.975462E-08 -8.822924E-15 -3.362959E-17  2.975462E-08  0.000000E+00  0.000000E+00  0.000000E+00  0.000000E+00  0.000000E+00  0.000000E+00  0.000000E+00  0.000000E+00  4.383790E+00 -1.242460E-06 -4.814865E-09  4.383790E+00                                                                                                                                                                                                                                                                                                                                                                                                                                                                                              