Title="TOUGHREACT V3.30-OMP flowvector.tec: Liq & Gas Fluxes (kg/s/m^2), Pore Velocities (m/s), & Heat Fluxes (J/s/m2)"                                                                                                                                                                                                                                                                                                                                                                                                                                                                                                                                                                                                                                                                                                         
Variables= "X(m)"     "Y(m)"      "Z(m)"     "FluxLiq"   "FluxLiq_X"   "FluxLiq_Y"   "FluxLiq_Z"   "PorVelLiq"  "PorVelLiqX"  "PorVelLiqY"  "PorVelLiqZ"     "FluxGas"   "FluxGas_X"   "FluxGas_Y"   "FluxGas_Z"   "PorVelGas"  "PorVelGasX"  "PorVelGasY"  "PorVelGasZ"    "HeatFlux"  "HeatFlux_X"  "HeatFlux_Y"  "HeatFlux_Z"                                                                                                                                                                                                                                                                                                                                                                                                                                                                                                
Zone T= "1.00000000E+07 sec" I=     9 J=    10 K=    23 F=Point
  1.250000E+02  1.250000E+02 -5.425000E+03  2.681662E-07 -3.872074E-14 -1.194976E-14  2.681662E-07  1.476892E-09 -2.139088E-16 -6.601527E-17  1.476892E-09  0.000000E+00  0.000000E+00  0.000000E+00  0.000000E+00  0.000000E+00  0.000000E+00  0.000000E+00  0.000000E+00  3.205186E-01 -3.380175E-08 -1.094607E-08  3.205186E-01                                                                                                                                                                                                                                                                                                                                                                                                                                                                                              
  3.750000E+02  1.250000E+02 -5.425000E+03  2.681662E-07 -7.266949E-13  1.874574E-14  2.681662E-07  1.476892E-09 -4.014553E-15  1.035590E-16  1.476892E-09  0.000000E+00  0.000000E+00  0.000000E+00  0.000000E+00  0.000000E+00  0.000000E+00  0.000000E+00  0.000000E+00  3.205186E-01 -6.316128E-07  1.724360E-08  3.205186E-01                                                                                                                                                                                                                                                                                                                                                                                                                                                                                              
  6.250000E+02  1.250000E+02 -5.425000E+03  2.681669E-07 -1.178024E-11  3.064019E-15  2.681669E-07  1.476896E-09 -6.507874E-14  1.692686E-17  1.476896E-09  0.000000E+00  0.000000E+00  0.000000E+00  0.000000E+00  0.000000E+00  0.000000E+00  0.000000E+00  0.000000E+00  3.205192E-01 -1.024510E-05  2.800263E-09  3.205192E-01                                                                                                                                                                                                                                                                                                                                                                                                                                                                                              
  8.750000E+02  1.250000E+02 -5.425000E+03  2.681791E-07 -1.522251E-10  9.663756E-16  2.681790E-07  1.476962E-09 -8.409522E-13  5.338645E-18  1.476962E-09  0.000000E+00  0.000000E+00  0.000000E+00  0.000000E+00  0.000000E+00  0.000000E+00  0.000000E+00  0.000000E+00  3.205297E-01 -1.411186E-04  7.166766E-10  3.205297E-01                                                                                                                                                                                                                                                                                                                                                                                                                                                                                              
  1.050000E+03  1.250000E+02 -5.425000E+03  2.682957E-07 -8.147636E-15 -2.004450E-15  2.682957E-07  1.477605E-09 -4.501079E-17 -1.107339E-17  1.477605E-09  0.000000E+00  0.000000E+00  0.000000E+00  0.000000E+00  0.000000E+00  0.000000E+00  0.000000E+00  0.000000E+00  3.206396E-01 -7.537248E-09 -1.838723E-09  3.206396E-01                                                                                                                                                                                                                                                                                                                                                                                                                                                                                              
  1.225000E+03  1.250000E+02 -5.425000E+03  2.681791E-07  1.522142E-10 -5.378056E-15  2.681790E-07  1.476963E-09  8.408923E-13 -2.971053E-17  1.476962E-09  0.000000E+00  0.000000E+00  0.000000E+00  0.000000E+00  0.000000E+00  0.000000E+00  0.000000E+00  0.000000E+00  3.205298E-01  1.411089E-04 -4.860980E-09  3.205297E-01                                                                                                                                                                                                                                                                                                                                                                                                                                                                                              
  1.475000E+03  1.250000E+02 -5.425000E+03  2.681670E-07  1.179078E-11 -4.425103E-15  2.681670E-07  1.476896E-09  6.513699E-14 -2.444604E-17  1.476896E-09  0.000000E+00  0.000000E+00  0.000000E+00  0.000000E+00  0.000000E+00  0.000000E+00  0.000000E+00  0.000000E+00  3.205192E-01  1.025474E-05 -4.125408E-09  3.205192E-01                                                                                                                                                                                                                                                                                                                                                                                                                                                                                              
  1.725000E+03  1.250000E+02 -5.425000E+03  2.681662E-07  7.504770E-13  3.551057E-15  2.681662E-07  1.476892E-09  4.145935E-15  1.961746E-17  1.476892E-09  0.000000E+00  0.000000E+00  0.000000E+00  0.000000E+00  0.000000E+00  0.000000E+00  0.000000E+00  0.000000E+00  3.205186E-01  6.529375E-07  3.170680E-09  3.205186E-01                                                                                                                                                                                                                                                                                                                                                                                                                                                                                              
  1.975000E+03  1.250000E+02 -5.425000E+03  2.681662E-07  4.926304E-14 -8.710984E-15  2.681662E-07  1.476892E-09  2.721487E-16 -4.812295E-17  1.476892E-09  0.000000E+00  0.000000E+00  0.000000E+00  0.000000E+00  0.000000E+00  0.000000E+00  0.000000E+00  0.000000E+00  3.205185E-01  4.331103E-08 -7.925374E-09  3.205185E-01                                                                                                                                                                                                                                                                                                                                                                                                                                                                                              
  1.250000E+02  1.250000E+02 -5.225000E+03  6.232035E-07 -3.486664E-15 -1.781031E-15  6.232035E-07  3.418722E-09 -1.914112E-17 -9.777518E-18  3.418722E-09  0.000000E+00  0.000000E+00  0.000000E+00  0.000000E+00  0.000000E+00  0.000000E+00  0.000000E+00  0.000000E+00  7.056828E-01 -2.936148E-09 -1.521934E-09  7.056828E-01                                                                                                                                                                                                                                                                                                                                                                                                                                                                                              
  3.750000E+02  1.250000E+02 -5.225000E+03  6.232036E-07 -1.150113E-13  1.251023E-15  6.232036E-07  3.418723E-09 -6.313902E-16  6.867878E-18  3.418723E-09  0.000000E+00  0.000000E+00  0.000000E+00  0.000000E+00  0.000000E+00  0.000000E+00  0.000000E+00  0.000000E+00  7.056829E-01 -9.650115E-08  1.028583E-09  7.056829E-01                                                                                                                                                                                                                                                                                                                                                                                                                                                                                              
  6.250000E+02  1.250000E+02 -5.225000E+03  6.232046E-07 -1.535776E-12  3.108687E-16  6.232046E-07  3.418728E-09 -8.431117E-15  1.706609E-18  3.418728E-09  0.000000E+00  0.000000E+00  0.000000E+00  0.000000E+00  0.000000E+00  0.000000E+00  0.000000E+00  0.000000E+00  7.056837E-01 -1.288286E-06  2.632008E-10  7.056837E-01                                                                                                                                                                                                                                                                                                                                                                                                                                                                                              
  8.750000E+02  1.250000E+02 -5.225000E+03  6.232182E-07 -1.101511E-11 -4.442392E-16  6.232182E-07  3.418803E-09 -6.047084E-14 -2.438788E-18  3.418803E-09  0.000000E+00  0.000000E+00  0.000000E+00  0.000000E+00  0.000000E+00  0.000000E+00  0.000000E+00  0.000000E+00  7.056955E-01 -9.242957E-06 -3.721002E-10  7.056955E-01                                                                                                                                                                                                                                                                                                                                                                                                                                                                                              
  1.050000E+03  1.250000E+02 -5.225000E+03  6.233414E-07  2.532169E-18 -6.137302E-16  6.233414E-07  3.419482E-09  1.390108E-20 -3.369261E-18  3.419482E-09  0.000000E+00  0.000000E+00  0.000000E+00  0.000000E+00  0.000000E+00  0.000000E+00  0.000000E+00  0.000000E+00  7.058108E-01  2.662078E-11 -5.300100E-10  7.058108E-01                                                                                                                                                                                                                                                                                                                                                                                                                                                                                              
  1.225000E+03  1.250000E+02 -5.225000E+03  6.232182E-07  1.101528E-11 -3.159217E-16  6.232182E-07  3.418803E-09  6.047175E-14 -1.734349E-18  3.418803E-09  0.000000E+00  0.000000E+00  0.000000E+00  0.000000E+00  0.000000E+00  0.000000E+00  0.000000E+00  0.000000E+00  7.056955E-01  9.243136E-06 -2.679765E-10  7.056955E-01                                                                                                                                                                                                                                                                                                                                                                                                                                                                                              
  1.475000E+03  1.250000E+02 -5.225000E+03  6.232046E-07  1.537049E-12 -3.548728E-16  6.232046E-07  3.418728E-09  8.438106E-15 -1.948184E-18  3.418728E-09  0.000000E+00  0.000000E+00  0.000000E+00  0.000000E+00  0.000000E+00  0.000000E+00  0.000000E+00  0.000000E+00  7.056837E-01  1.289344E-06 -2.938355E-10  7.056837E-01                                                                                                                                                                                                                                                                                                                                                                                                                                                                                              
  1.725000E+03  1.250000E+02 -5.225000E+03  6.232036E-07  1.161517E-13 -1.159805E-16  6.232036E-07  3.418723E-09  6.376508E-16 -6.367107E-19  3.418723E-09  0.000000E+00  0.000000E+00  0.000000E+00  0.000000E+00  0.000000E+00  0.000000E+00  0.000000E+00  0.000000E+00  7.056829E-01  9.743370E-08 -9.899320E-11  7.056829E-01                                                                                                                                                                                                                                                                                                                                                                                                                                                                                              
  1.975000E+03  1.250000E+02 -5.225000E+03  6.232035E-07  3.517282E-15 -9.677564E-16  6.232035E-07  3.418722E-09  1.930920E-17 -5.312797E-18  3.418722E-09  0.000000E+00  0.000000E+00  0.000000E+00  0.000000E+00  0.000000E+00  0.000000E+00  0.000000E+00  0.000000E+00  7.056827E-01  2.962245E-09 -8.249738E-10  7.056827E-01                                                                                                                                                                                                                                                                                                                                                                                                                                                                                              
  1.250000E+02  1.250000E+02 -4.975000E+03  1.142757E-06  7.659319E-14 -5.138245E-15  1.142757E-06  6.219310E-09  4.173788E-16 -2.799980E-17  6.219310E-09  0.000000E+00  0.000000E+00  0.000000E+00  0.000000E+00  0.000000E+00  0.000000E+00  0.000000E+00  0.000000E+00  1.102927E+00  6.105909E-08 -4.181109E-09  1.102927E+00                                                                                                                                                                                                                                                                                                                                                                                                                                                                                              
  3.750000E+02  1.250000E+02 -4.975000E+03  1.142757E-06  2.212383E-13 -1.378738E-16  1.142757E-06  6.219314E-09  1.205592E-15 -7.513146E-19  6.219314E-09  0.000000E+00  0.000000E+00  0.000000E+00  0.000000E+00  0.000000E+00  0.000000E+00  0.000000E+00  0.000000E+00  1.102928E+00  1.768124E-07 -5.080974E-11  1.102928E+00                                                                                                                                                                                                                                                                                                                                                                                                                                                                                              
  6.250000E+02  1.250000E+02 -4.975000E+03  1.142759E-06  2.701494E-13  1.379104E-14  1.142759E-06  6.219323E-09  1.472123E-15  7.515144E-17  6.219323E-09  0.000000E+00  0.000000E+00  0.000000E+00  0.000000E+00  0.000000E+00  0.000000E+00  0.000000E+00  0.000000E+00  1.102929E+00  2.164431E-07  1.136533E-08  1.102929E+00                                                                                                                                                                                                                                                                                                                                                                                                                                                                                              
  8.750000E+02  1.250000E+02 -4.975000E+03  1.142763E-06 -1.974170E-13 -5.745025E-17  1.142763E-06  6.219343E-09 -1.075783E-15 -3.130632E-19  6.219343E-09  0.000000E+00  0.000000E+00  0.000000E+00  0.000000E+00  0.000000E+00  0.000000E+00  0.000000E+00  0.000000E+00  1.102932E+00 -1.581111E-07 -1.846436E-10  1.102932E+00                                                                                                                                                                                                                                                                                                                                                                                                                                                                                              
  1.050000E+03  1.250000E+02 -4.975000E+03  1.142770E-06  1.730597E-15  2.156759E-15  1.142770E-06  6.219385E-09  9.430533E-18  1.175281E-17  6.219385E-09  0.000000E+00  0.000000E+00  0.000000E+00  0.000000E+00  0.000000E+00  0.000000E+00  0.000000E+00  0.000000E+00  1.102939E+00  1.202267E-09  1.852303E-09  1.102939E+00                                                                                                                                                                                                                                                                                                                                                                                                                                                                                              
  1.225000E+03  1.250000E+02 -4.975000E+03  1.142763E-06  2.091680E-13 -2.552899E-16  1.142763E-06  6.219343E-09  1.139818E-15 -1.391149E-18  6.219343E-09  0.000000E+00  0.000000E+00  0.000000E+00  0.000000E+00  0.000000E+00  0.000000E+00  0.000000E+00  0.000000E+00  1.102932E+00  1.676382E-07 -2.801441E-10  1.102932E+00                                                                                                                                                                                                                                                                                                                                                                                                                                                                                              
  1.475000E+03  1.250000E+02 -4.975000E+03  1.142759E-06 -2.693268E-13 -2.150227E-16  1.142759E-06  6.219324E-09 -1.467640E-15 -1.171722E-18  6.219324E-09  0.000000E+00  0.000000E+00  0.000000E+00  0.000000E+00  0.000000E+00  0.000000E+00  0.000000E+00  0.000000E+00  1.102929E+00 -2.155122E-07 -1.695901E-10  1.102929E+00                                                                                                                                                                                                                                                                                                                                                                                                                                                                                              
  1.725000E+03  1.250000E+02 -4.975000E+03  1.142757E-06 -2.339954E-13  1.536796E-15  1.142757E-06  6.219314E-09 -1.275110E-15  8.374453E-18  6.219314E-09  0.000000E+00  0.000000E+00  0.000000E+00  0.000000E+00  0.000000E+00  0.000000E+00  0.000000E+00  0.000000E+00  1.102928E+00 -1.873086E-07  1.302576E-09  1.102928E+00                                                                                                                                                                                                                                                                                                                                                                                                                                                                                              
  1.975000E+03  1.250000E+02 -4.975000E+03  1.142757E-06 -8.015252E-14 -7.543830E-16  1.142757E-06  6.219310E-09 -4.367746E-16 -4.110854E-18  6.219310E-09  0.000000E+00  0.000000E+00  0.000000E+00  0.000000E+00  0.000000E+00  0.000000E+00  0.000000E+00  0.000000E+00  1.102927E+00 -6.416127E-08 -6.802743E-10  1.102927E+00                                                                                                                                                                                                                                                                                                                                                                                                                                                                                              
  1.250000E+02  1.250000E+02 -4.725000E+03  5.057783E-06  7.951806E-13 -2.753202E-14  5.057783E-06  2.735923E-08  4.306994E-15 -1.491237E-16  2.735923E-08  0.000000E+00  0.000000E+00  0.000000E+00  0.000000E+00  0.000000E+00  0.000000E+00  0.000000E+00  0.000000E+00  4.056191E+00  6.061964E-07 -2.255860E-08  4.056191E+00                                                                                                                                                                                                                                                                                                                                                                                                                                                                                              
  3.750000E+02  1.250000E+02 -4.725000E+03  5.057785E-06  2.257863E-12 -2.894801E-15  5.057785E-06  2.735924E-08  1.222943E-14 -1.567932E-17  2.735924E-08  0.000000E+00  0.000000E+00  0.000000E+00  0.000000E+00  0.000000E+00  0.000000E+00  0.000000E+00  0.000000E+00  4.056193E+00  1.717800E-06 -1.702043E-09  4.056193E+00                                                                                                                                                                                                                                                                                                                                                                                                                                                                                              
  6.250000E+02  1.250000E+02 -4.725000E+03  5.057791E-06  3.532066E-12  7.897968E-14  5.057791E-06  2.735928E-08  1.913099E-14  4.277834E-16  2.735928E-08  0.000000E+00  0.000000E+00  0.000000E+00  0.000000E+00  0.000000E+00  0.000000E+00  0.000000E+00  0.000000E+00  4.056196E+00  2.684189E-06  6.405583E-08  4.056196E+00                                                                                                                                                                                                                                                                                                                                                                                                                                                                                              
  8.750000E+02  1.250000E+02 -4.725000E+03  5.057800E-06  3.390229E-12  6.546222E-14  5.057800E-06  2.735933E-08  1.836275E-14  3.545678E-16  2.735933E-08  0.000000E+00  0.000000E+00  0.000000E+00  0.000000E+00  0.000000E+00  0.000000E+00  0.000000E+00  0.000000E+00  4.056187E+00  2.562277E-06  5.300993E-08  4.056187E+00                                                                                                                                                                                                                                                                                                                                                                                                                                                                                              
  1.050000E+03  1.250000E+02 -4.725000E+03  5.057807E-06  7.710874E-14 -1.566131E-14  5.057807E-06  2.735943E-08  4.176497E-16 -8.482752E-17  2.735943E-08  0.000000E+00  0.000000E+00  0.000000E+00  0.000000E+00  0.000000E+00  0.000000E+00  0.000000E+00  0.000000E+00  4.056120E+00  6.106618E-08 -1.238795E-08  4.056120E+00                                                                                                                                                                                                                                                                                                                                                                                                                                                                                              
  1.225000E+03  1.250000E+02 -4.725000E+03  5.057800E-06 -3.292093E-12  1.433560E-14  5.057800E-06  2.735933E-08 -1.783121E-14  7.764695E-17  2.735933E-08  0.000000E+00  0.000000E+00  0.000000E+00  0.000000E+00  0.000000E+00  0.000000E+00  0.000000E+00  0.000000E+00  4.056187E+00 -2.483695E-06  1.204558E-08  4.056187E+00                                                                                                                                                                                                                                                                                                                                                                                                                                                                                              
  1.475000E+03  1.250000E+02 -4.725000E+03  5.057791E-06 -3.626626E-12 -1.604568E-14  5.057791E-06  2.735927E-08 -1.964316E-14 -8.690940E-17  2.735927E-08  0.000000E+00  0.000000E+00  0.000000E+00  0.000000E+00  0.000000E+00  0.000000E+00  0.000000E+00  0.000000E+00  4.056196E+00 -2.758623E-06 -1.394574E-08  4.056196E+00                                                                                                                                                                                                                                                                                                                                                                                                                                                                                              
  1.725000E+03  1.250000E+02 -4.725000E+03  5.057786E-06 -2.313971E-12 -3.179253E-15  5.057786E-06  2.735924E-08 -1.253333E-14 -1.722002E-17  2.735924E-08  0.000000E+00  0.000000E+00  0.000000E+00  0.000000E+00  0.000000E+00  0.000000E+00  0.000000E+00  0.000000E+00  4.056193E+00 -1.763320E-06 -2.841249E-09  4.056193E+00                                                                                                                                                                                                                                                                                                                                                                                                                                                                                              