Title="TOUGHREACT V3.30-OMP flowvector.tec: Liq & Gas Fluxes (kg/s/m^2), Pore Velocities (m/s), & Heat Fluxes (J/s/m2)"                                                                                                                                                                                                                                                                                                                                                                                                                                                                                                                                                                                                                                                                                                         
Variables= "X(m)"     "Y(m)"      "Z(m)"     "FluxLiq"   "FluxLiq_X"   "FluxLiq_Y"   "FluxLiq_Z"   "PorVelLiq"  "PorVelLiqX"  "PorVelLiqY"  "PorVelLiqZ"     "FluxGas"   "FluxGas_X"   "FluxGas_Y"   "FluxGas_Z"   "PorVelGas"  "PorVelGasX"  "PorVelGasY"  "PorVelGasZ"    "HeatFlux"  "HeatFlux_X"  "HeatFlux_Y"  "HeatFlux_Z"                                                                                                                                                                                                                                                                                                                                                                                                                                                                                                
Zone T= "3.15569000E+08 sec" I=     9 J=    10 K=    23 F=Point
  1.250000E+02  1.250000E+02 -5.425000E+03  1.600025E-07 -3.451253E-11 -2.206906E-10  1.600024E-07  8.860554E-10 -1.917137E-13 -1.225914E-12  8.860545E-10  0.000000E+00  0.000000E+00  0.000000E+00  0.000000E+00  0.000000E+00  0.000000E+00  0.000000E+00  0.000000E+00  2.256024E-01 -2.996596E-05 -1.916165E-04  2.256024E-01                                                                                                                                                                                                                                                                                                                                                                                                                                                                                              
  3.750000E+02  1.250000E+02 -5.425000E+03  1.599636E-07 -8.281298E-11 -2.270446E-10  1.599634E-07  8.858395E-10 -4.600179E-13 -1.261209E-12  8.858385E-10  0.000000E+00  0.000000E+00  0.000000E+00  0.000000E+00  0.000000E+00  0.000000E+00  0.000000E+00  0.000000E+00  2.255686E-01 -7.190712E-05 -1.971316E-04  2.255685E-01                                                                                                                                                                                                                                                                                                                                                                                                                                                                                              
  6.250000E+02  1.250000E+02 -5.425000E+03  1.599307E-07 -1.246884E-10 -2.338608E-10  1.599305E-07  8.856574E-10 -6.926317E-13 -1.299073E-12  8.856561E-10  0.000000E+00  0.000000E+00  0.000000E+00  0.000000E+00  0.000000E+00  0.000000E+00  0.000000E+00  0.000000E+00  2.255401E-01 -1.095686E-04 -2.030503E-04  2.255400E-01                                                                                                                                                                                                                                                                                                                                                                                                                                                                                              
  8.750000E+02  1.250000E+02 -5.425000E+03  1.599543E-07 -2.576547E-10 -2.384258E-10  1.599539E-07  8.857878E-10 -1.431255E-12 -1.324431E-12  8.857857E-10  0.000000E+00  0.000000E+00  0.000000E+00  0.000000E+00  0.000000E+00  0.000000E+00  0.000000E+00  0.000000E+00  2.255626E-01 -4.874918E-04 -2.070140E-04  2.255620E-01                                                                                                                                                                                                                                                                                                                                                                                                                                                                                              
  1.050000E+03  1.250000E+02 -5.425000E+03  1.601214E-07  7.154292E-16 -2.391149E-10  1.601212E-07  8.867211E-10  3.974190E-18 -1.328283E-12  8.867201E-10  0.000000E+00  0.000000E+00  0.000000E+00  0.000000E+00  0.000000E+00  0.000000E+00  0.000000E+00  0.000000E+00  2.259480E-01  1.814569E-10 -2.076318E-04  2.259479E-01                                                                                                                                                                                                                                                                                                                                                                                                                                                                                              
  1.225000E+03  1.250000E+02 -5.425000E+03  1.599543E-07  2.576560E-10 -2.384258E-10  1.599539E-07  8.857878E-10  1.431262E-12 -1.324431E-12  8.857857E-10  0.000000E+00  0.000000E+00  0.000000E+00  0.000000E+00  0.000000E+00  0.000000E+00  0.000000E+00  0.000000E+00  2.255626E-01  4.874923E-04 -2.070143E-04  2.255620E-01                                                                                                                                                                                                                                                                                                                                                                                                                                                                                              
  1.475000E+03  1.250000E+02 -5.425000E+03  1.599307E-07  1.246893E-10 -2.338608E-10  1.599305E-07  8.856574E-10  6.926366E-13 -1.299073E-12  8.856561E-10  0.000000E+00  0.000000E+00  0.000000E+00  0.000000E+00  0.000000E+00  0.000000E+00  0.000000E+00  0.000000E+00  2.255401E-01  1.095705E-04 -2.030510E-04  2.255400E-01                                                                                                                                                                                                                                                                                                                                                                                                                                                                                              
  1.725000E+03  1.250000E+02 -5.425000E+03  1.599636E-07  8.281339E-11 -2.270445E-10  1.599634E-07  8.858395E-10  4.600202E-13 -1.261209E-12  8.858385E-10  0.000000E+00  0.000000E+00  0.000000E+00  0.000000E+00  0.000000E+00  0.000000E+00  0.000000E+00  0.000000E+00  2.255686E-01  7.190913E-05 -1.971332E-04  2.255685E-01                                                                                                                                                                                                                                                                                                                                                                                                                                                                                              
  1.975000E+03  1.250000E+02 -5.425000E+03  1.600025E-07  3.451264E-11 -2.206907E-10  1.600024E-07  8.860554E-10  1.917143E-13 -1.225914E-12  8.860545E-10  0.000000E+00  0.000000E+00  0.000000E+00  0.000000E+00  0.000000E+00  0.000000E+00  0.000000E+00  0.000000E+00  2.256024E-01  2.996643E-05 -1.916171E-04  2.256024E-01                                                                                                                                                                                                                                                                                                                                                                                                                                                                                              
  1.250000E+02  1.250000E+02 -5.225000E+03  5.305482E-07 -6.397159E-11 -3.092254E-10  5.305481E-07  2.923324E-09 -3.530318E-13 -1.706481E-12  2.923324E-09  0.000000E+00  0.000000E+00  0.000000E+00  0.000000E+00  0.000000E+00  0.000000E+00  0.000000E+00  0.000000E+00  6.231844E-01 -5.358716E-05 -2.590303E-04  6.231843E-01                                                                                                                                                                                                                                                                                                                                                                                                                                                                                              
  3.750000E+02  1.250000E+02 -5.225000E+03  5.303792E-07 -1.366384E-10 -3.194073E-10  5.303791E-07  2.922393E-09 -7.540485E-13 -1.762670E-12  2.922392E-09  0.000000E+00  0.000000E+00  0.000000E+00  0.000000E+00  0.000000E+00  0.000000E+00  0.000000E+00  0.000000E+00  6.230432E-01 -1.144623E-04 -2.675561E-04  6.230432E-01                                                                                                                                                                                                                                                                                                                                                                                                                                                                                              
  6.250000E+02  1.250000E+02 -5.225000E+03  5.302251E-07 -1.291204E-10 -3.281499E-10  5.302249E-07  2.921543E-09 -7.125599E-13 -1.810917E-12  2.921543E-09  0.000000E+00  0.000000E+00  0.000000E+00  0.000000E+00  0.000000E+00  0.000000E+00  0.000000E+00  0.000000E+00  6.229157E-01 -1.081896E-04 -2.748743E-04  6.229156E-01                                                                                                                                                                                                                                                                                                                                                                                                                                                                                              
  8.750000E+02  1.250000E+02 -5.225000E+03  5.302119E-07 -9.061071E-11 -3.333012E-10  5.302118E-07  2.921471E-09 -5.000415E-13 -1.839344E-12  2.921470E-09  0.000000E+00  0.000000E+00  0.000000E+00  0.000000E+00  0.000000E+00  0.000000E+00  0.000000E+00  0.000000E+00  6.229107E-01 -7.771113E-05 -2.791843E-04  6.229106E-01                                                                                                                                                                                                                                                                                                                                                                                                                                                                                              
  1.050000E+03  1.250000E+02 -5.225000E+03  5.304079E-07  5.086565E-16 -3.345763E-10  5.304078E-07  2.922563E-09  2.807056E-18 -1.846381E-12  2.922563E-09  0.000000E+00  0.000000E+00  0.000000E+00  0.000000E+00  0.000000E+00  0.000000E+00  0.000000E+00  0.000000E+00  6.233230E-01  4.620385E-10 -2.802509E-04  6.233229E-01                                                                                                                                                                                                                                                                                                                                                                                                                                                                                              
  1.225000E+03  1.250000E+02 -5.225000E+03  5.302119E-07  9.061176E-11 -3.333012E-10  5.302118E-07  2.921471E-09  5.000473E-13 -1.839344E-12  2.921470E-09  0.000000E+00  0.000000E+00  0.000000E+00  0.000000E+00  0.000000E+00  0.000000E+00  0.000000E+00  0.000000E+00  6.229107E-01  7.771200E-05 -2.791843E-04  6.229106E-01                                                                                                                                                                                                                                                                                                                                                                                                                                                                                              
  1.475000E+03  1.250000E+02 -5.225000E+03  5.302251E-07  1.291214E-10 -3.281500E-10  5.302249E-07  2.921543E-09  7.125655E-13 -1.810917E-12  2.921543E-09  0.000000E+00  0.000000E+00  0.000000E+00  0.000000E+00  0.000000E+00  0.000000E+00  0.000000E+00  0.000000E+00  6.229157E-01  1.081903E-04 -2.748745E-04  6.229156E-01                                                                                                                                                                                                                                                                                                                                                                                                                                                                                              
  1.725000E+03  1.250000E+02 -5.225000E+03  5.303792E-07  1.366390E-10 -3.194074E-10  5.303791E-07  2.922393E-09  7.540519E-13 -1.762671E-12  2.922392E-09  0.000000E+00  0.000000E+00  0.000000E+00  0.000000E+00  0.000000E+00  0.000000E+00  0.000000E+00  0.000000E+00  6.230432E-01  1.144633E-04 -2.675564E-04  6.230432E-01                                                                                                                                                                                                                                                                                                                                                                                                                                                                                              
  1.975000E+03  1.250000E+02 -5.225000E+03  5.305482E-07  6.397175E-11 -3.092255E-10  5.305481E-07  2.923324E-09  3.530327E-13 -1.706482E-12  2.923324E-09  0.000000E+00  0.000000E+00  0.000000E+00  0.000000E+00  0.000000E+00  0.000000E+00  0.000000E+00  0.000000E+00  6.231844E-01  5.358789E-05 -2.590311E-04  6.231843E-01                                                                                                                                                                                                                                                                                                                                                                                                                                                                                              
  1.250000E+02  1.250000E+02 -4.975000E+03  7.617008E-07 -1.867658E-10 -6.771575E-10  7.617005E-07  4.172275E-09 -1.023205E-12 -3.709835E-12  4.172273E-09  0.000000E+00  0.000000E+00  0.000000E+00  0.000000E+00  0.000000E+00  0.000000E+00  0.000000E+00  0.000000E+00  7.998065E-01 -1.476874E-04 -5.391155E-04  7.998063E-01                                                                                                                                                                                                                                                                                                                                                                                                                                                                                              
  3.750000E+02  1.250000E+02 -4.975000E+03  7.612609E-07 -3.734048E-10 -7.063036E-10  7.612605E-07  4.169812E-09 -2.045716E-12 -3.869510E-12  4.169810E-09  0.000000E+00  0.000000E+00  0.000000E+00  0.000000E+00  0.000000E+00  0.000000E+00  0.000000E+00  0.000000E+00  7.999717E-01 -2.943374E-04 -5.609750E-04  7.999714E-01                                                                                                                                                                                                                                                                                                                                                                                                                                                                                              
  6.250000E+02  1.250000E+02 -4.975000E+03  7.608815E-07 -2.759828E-10 -7.202947E-10  7.608811E-07  4.167656E-09 -1.511984E-12 -3.946156E-12  4.167653E-09  0.000000E+00  0.000000E+00  0.000000E+00  0.000000E+00  0.000000E+00  0.000000E+00  0.000000E+00  0.000000E+00  8.004120E-01 -2.144405E-04 -5.703124E-04  8.004118E-01                                                                                                                                                                                                                                                                                                                                                                                                                                                                                              
  8.750000E+02  1.250000E+02 -4.975000E+03  7.607382E-07 -8.315650E-11 -7.248486E-10  7.607379E-07  4.166766E-09 -4.555763E-13 -3.971102E-12  4.166764E-09  0.000000E+00  0.000000E+00  0.000000E+00  0.000000E+00  0.000000E+00  0.000000E+00  0.000000E+00  0.000000E+00  8.012933E-01 -6.162660E-05 -5.724091E-04  8.012931E-01                                                                                                                                                                                                                                                                                                                                                                                                                                                                                              
  1.050000E+03  1.250000E+02 -4.975000E+03  7.609117E-07  2.642963E-16 -7.330389E-10  7.609114E-07  4.167689E-09  1.447958E-18 -4.015972E-12  4.167687E-09  0.000000E+00  0.000000E+00  0.000000E+00  0.000000E+00  0.000000E+00  0.000000E+00  0.000000E+00  0.000000E+00  8.016721E-01  6.401519E-10 -5.785144E-04  8.016719E-01                                                                                                                                                                                                                                                                                                                                                                                                                                                                                              
  1.225000E+03  1.250000E+02 -4.975000E+03  7.607382E-07  8.315711E-11 -7.248485E-10  7.607379E-07  4.166766E-09  4.555797E-13 -3.971102E-12  4.166764E-09  0.000000E+00  0.000000E+00  0.000000E+00  0.000000E+00  0.000000E+00  0.000000E+00  0.000000E+00  0.000000E+00  8.012933E-01  6.162714E-05 -5.724091E-04  8.012931E-01                                                                                                                                                                                                                                                                                                                                                                                                                                                                                              
  1.475000E+03  1.250000E+02 -4.975000E+03  7.608815E-07  2.759835E-10 -7.202947E-10  7.608811E-07  4.167656E-09  1.511988E-12 -3.946156E-12  4.167653E-09  0.000000E+00  0.000000E+00  0.000000E+00  0.000000E+00  0.000000E+00  0.000000E+00  0.000000E+00  0.000000E+00  8.004120E-01  2.144410E-04 -5.703121E-04  8.004118E-01                                                                                                                                                                                                                                                                                                                                                                                                                                                                                              
  1.725000E+03  1.250000E+02 -4.975000E+03  7.612609E-07  3.734053E-10 -7.063036E-10  7.612605E-07  4.169812E-09  2.045718E-12 -3.869510E-12  4.169810E-09  0.000000E+00  0.000000E+00  0.000000E+00  0.000000E+00  0.000000E+00  0.000000E+00  0.000000E+00  0.000000E+00  7.999717E-01  2.943382E-04 -5.609752E-04  7.999714E-01                                                                                                                                                                                                                                                                                                                                                                                                                                                                                              
  1.975000E+03  1.250000E+02 -4.975000E+03  7.617008E-07  1.867659E-10 -6.771577E-10  7.617005E-07  4.172275E-09  1.023206E-12 -3.709836E-12  4.172273E-09  0.000000E+00  0.000000E+00  0.000000E+00  0.000000E+00  0.000000E+00  0.000000E+00  0.000000E+00  0.000000E+00  7.998065E-01  1.476876E-04 -5.391154E-04  7.998063E-01                                                                                                                                                                                                                                                                                                                                                                                                                                                                                              
  1.250000E+02  1.250000E+02 -4.725000E+03  5.025095E-07 -4.221417E-10 -1.543389E-09  5.025070E-07  2.723946E-09 -2.296320E-12 -8.395395E-12  2.723932E-09  0.000000E+00  0.000000E+00  0.000000E+00  0.000000E+00  0.000000E+00  0.000000E+00  0.000000E+00  0.000000E+00  1.448569E+00  2.012963E-04 -3.021119E-04  1.448569E+00                                                                                                                                                                                                                                                                                                                                                                                                                                                                                              
  3.750000E+02  1.250000E+02 -4.725000E+03  4.969066E-07 -7.705558E-10 -1.623623E-09  4.969034E-07  2.693160E-09 -4.191469E-12 -8.831214E-12  2.693142E-09  0.000000E+00  0.000000E+00  0.000000E+00  0.000000E+00  0.000000E+00  0.000000E+00  0.000000E+00  0.000000E+00  1.518096E+00  6.852977E-04  5.143085E-05  1.518095E+00                                                                                                                                                                                                                                                                                                                                                                                                                                                                                              
  6.250000E+02  1.250000E+02 -4.725000E+03  4.906479E-07 -4.320622E-10 -1.616591E-09  4.906451E-07  2.658839E-09 -2.350103E-12 -8.792165E-12  2.658823E-09  0.000000E+00  0.000000E+00  0.000000E+00  0.000000E+00  0.000000E+00  0.000000E+00  0.000000E+00  0.000000E+00  1.602619E+00  1.418249E-03  4.673521E-04  1.602618E+00                                                                                                                                                                                                                                                                                                                                                                                                                                                                                              
  8.750000E+02  1.250000E+02 -4.725000E+03  4.837432E-07  1.557480E-10 -1.587859E-09  4.837406E-07  2.621116E-09  8.470206E-13 -8.634988E-12  2.621102E-09  0.000000E+00  0.000000E+00  0.000000E+00  0.000000E+00  0.000000E+00  0.000000E+00  0.000000E+00  0.000000E+00  1.703474E+00  1.455507E-03  7.226536E-04  1.703473E+00                                                                                                                                                                                                                                                                                                                                                                                                                                                                                              
  1.050000E+03  1.250000E+02 -4.725000E+03  4.840003E-07  1.240911E-20 -1.671860E-09  4.839975E-07  2.622176E-09  1.414091E-22 -9.091577E-12  2.622160E-09  0.000000E+00  0.000000E+00  0.000000E+00  0.000000E+00  0.000000E+00  0.000000E+00  0.000000E+00  0.000000E+00  1.730075E+00  1.769291E-09  7.053401E-04  1.730075E+00                                                                                                                                                                                                                                                                                                                                                                                                                                                                                              
  1.225000E+03  1.250000E+02 -4.725000E+03  4.837432E-07 -1.557481E-10 -1.587859E-09  4.837406E-07  2.621116E-09 -8.470210E-13 -8.634987E-12  2.621102E-09  0.000000E+00  0.000000E+00  0.000000E+00  0.000000E+00  0.000000E+00  0.000000E+00  0.000000E+00  0.000000E+00  1.703474E+00 -1.455503E-03  7.226522E-04  1.703473E+00                                                                                                                                                                                                                                                                                                                                                                                                                                                                                              
  1.475000E+03  1.250000E+02 -4.725000E+03  4.906479E-07  4.320625E-10 -1.616591E-09  4.906451E-07  2.658839E-09  2.350105E-12 -8.792162E-12  2.658823E-09  0.000000E+00  0.000000E+00  0.000000E+00  0.000000E+00  0.000000E+00  0.000000E+00  0.000000E+00  0.000000E+00  1.602619E+00 -1.418250E-03  4.673463E-04  1.602618E+00                                                                                                                                                                                                                                                                                                                                                                                                                                                                                              
  1.725000E+03  1.250000E+02 -4.725000E+03  4.969066E-07  7.705561E-10 -1.623623E-09  4.969034E-07  2.693160E-09  4.191470E-12 -8.831213E-12  2.693142E-09  0.000000E+00  0.000000E+00  0.000000E+00  0.000000E+00  0.000000E+00  0.000000E+00  0.000000E+00  0.000000E+00  1.518096E+00 -6.852990E-04  5.142802E-05  1.518095E+00                                                                                                                                                                                                                                                                                                                                                                                                                                                                                              