Title="TOUGHREACT V3.30-OMP flowvector.tec: Liq & Gas Fluxes (kg/s/m^2), Pore Velocities (m/s), & Heat Fluxes (J/s/m2)"                                                                                                                                                                                                                                                                                                                                                                                                                                                                                                                                                                                                                                                                                                         
Variables= "X(m)"     "Y(m)"      "Z(m)"     "FluxLiq"   "FluxLiq_X"   "FluxLiq_Y"   "FluxLiq_Z"   "PorVelLiq"  "PorVelLiqX"  "PorVelLiqY"  "PorVelLiqZ"     "FluxGas"   "FluxGas_X"   "FluxGas_Y"   "FluxGas_Z"   "PorVelGas"  "PorVelGasX"  "PorVelGasY"  "PorVelGasZ"    "HeatFlux"  "HeatFlux_X"  "HeatFlux_Y"  "HeatFlux_Z"                                                                                                                                                                                                                                                                                                                                                                                                                                                                                                
Zone T= "1.00000000E+11 sec" I=     9 J=    10 K=    23 F=Point
  1.250000E+02  1.250000E+02 -5.425000E+03  6.086062E-09 -5.285605E-10 -5.886129E-10 -6.034427E-09  3.235993E-11 -2.825297E-12 -3.146236E-12 -3.208245E-11  0.000000E+00  0.000000E+00  0.000000E+00  0.000000E+00  0.000000E+00  0.000000E+00  0.000000E+00  0.000000E+00  1.572555E-01  2.858468E-03  3.246728E-03  1.571960E-01                                                                                                                                                                                                                                                                                                                                                                                                                                                                                              
  3.750000E+02  1.250000E+02 -5.425000E+03  6.384664E-09 -1.266791E-09 -6.128169E-10 -6.227650E-09  3.394286E-11 -6.770013E-12 -3.274647E-12 -3.309926E-11  0.000000E+00  0.000000E+00  0.000000E+00  0.000000E+00  0.000000E+00  0.000000E+00  0.000000E+00  0.000000E+00  1.586572E-01  6.827629E-03  3.528399E-03  1.584709E-01                                                                                                                                                                                                                                                                                                                                                                                                                                                                                              
  6.250000E+02  1.250000E+02 -5.425000E+03  6.642129E-09 -1.267843E-09 -6.362895E-10 -6.488882E-09  3.529560E-11 -6.773783E-12 -3.398698E-12 -3.447237E-11  0.000000E+00  0.000000E+00  0.000000E+00  0.000000E+00  0.000000E+00  0.000000E+00  0.000000E+00  0.000000E+00  1.605980E-01  6.420495E-03  3.862976E-03  1.604231E-01                                                                                                                                                                                                                                                                                                                                                                                                                                                                                              
  8.750000E+02  1.250000E+02 -5.425000E+03  6.721143E-09 -5.804994E-10 -6.469016E-10 -6.664705E-09  3.569856E-11 -3.100875E-12 -3.454503E-12 -3.539545E-11  0.000000E+00  0.000000E+00  0.000000E+00  0.000000E+00  0.000000E+00  0.000000E+00  0.000000E+00  0.000000E+00  1.626926E-01  2.068152E-04  4.073573E-03  1.626415E-01                                                                                                                                                                                                                                                                                                                                                                                                                                                                                              
  1.050000E+03  1.250000E+02 -5.425000E+03  6.568544E-09 -1.043449E-14 -6.487624E-10 -6.536427E-09  3.488854E-11 -5.573518E-17 -3.464898E-12 -3.471605E-11  0.000000E+00  0.000000E+00  0.000000E+00  0.000000E+00  0.000000E+00  0.000000E+00  0.000000E+00  0.000000E+00  1.651693E-01 -3.662821E-09  4.097864E-03  1.651184E-01                                                                                                                                                                                                                                                                                                                                                                                                                                                                                              
  1.225000E+03  1.250000E+02 -5.425000E+03  6.721148E-09  5.804931E-10 -6.468942E-10 -6.664712E-09  3.569859E-11  3.100841E-12 -3.454463E-12 -3.539549E-11  0.000000E+00  0.000000E+00  0.000000E+00  0.000000E+00  0.000000E+00  0.000000E+00  0.000000E+00  0.000000E+00  1.626926E-01 -2.068344E-04  4.073570E-03  1.626415E-01                                                                                                                                                                                                                                                                                                                                                                                                                                                                                              
  1.475000E+03  1.250000E+02 -5.425000E+03  6.642113E-09  1.267836E-09 -6.362766E-10 -6.488868E-09  3.529551E-11  6.773746E-12 -3.398629E-12 -3.447229E-11  0.000000E+00  0.000000E+00  0.000000E+00  0.000000E+00  0.000000E+00  0.000000E+00  0.000000E+00  0.000000E+00  1.605980E-01 -6.420561E-03  3.862971E-03  1.604231E-01                                                                                                                                                                                                                                                                                                                                                                                                                                                                                              
  1.725000E+03  1.250000E+02 -5.425000E+03  6.384653E-09  1.266775E-09 -6.128061E-10 -6.227644E-09  3.394280E-11  6.769930E-12 -3.274590E-12 -3.309923E-11  0.000000E+00  0.000000E+00  0.000000E+00  0.000000E+00  0.000000E+00  0.000000E+00  0.000000E+00  0.000000E+00  1.586572E-01 -6.827660E-03  3.528448E-03  1.584710E-01                                                                                                                                                                                                                                                                                                                                                                                                                                                                                              
  1.975000E+03  1.250000E+02 -5.425000E+03  6.086040E-09  5.285561E-10 -5.886185E-10 -6.034405E-09  3.235981E-11  2.825273E-12 -3.146266E-12 -3.208234E-11  0.000000E+00  0.000000E+00  0.000000E+00  0.000000E+00  0.000000E+00  0.000000E+00  0.000000E+00  0.000000E+00  1.572556E-01 -2.858448E-03  3.246773E-03  1.571961E-01                                                                                                                                                                                                                                                                                                                                                                                                                                                                                              
  1.250000E+02  1.250000E+02 -5.225000E+03  2.215909E-08 -8.142256E-11 -6.393980E-11 -2.215885E-08  1.163524E-10 -4.305911E-13 -3.381306E-13 -1.163511E-10  0.000000E+00  0.000000E+00  0.000000E+00  0.000000E+00  0.000000E+00  0.000000E+00  0.000000E+00  0.000000E+00  4.688082E-01  4.288410E-03  4.714533E-03  4.687648E-01                                                                                                                                                                                                                                                                                                                                                                                                                                                                                              
  3.750000E+02  1.250000E+02 -5.225000E+03  2.262898E-08 -1.866929E-10 -5.150546E-11 -2.262815E-08  1.187760E-10 -9.870597E-13 -2.722724E-13 -1.187716E-10  0.000000E+00  0.000000E+00  0.000000E+00  0.000000E+00  0.000000E+00  0.000000E+00  0.000000E+00  0.000000E+00  4.739523E-01  1.039070E-02  5.230328E-03  4.738095E-01                                                                                                                                                                                                                                                                                                                                                                                                                                                                                              
  6.250000E+02  1.250000E+02 -5.225000E+03  2.324122E-08 -1.873012E-10 -2.815689E-11 -2.324045E-08  1.219261E-10 -9.898986E-13 -1.487671E-13 -1.219220E-10  0.000000E+00  0.000000E+00  0.000000E+00  0.000000E+00  0.000000E+00  0.000000E+00  0.000000E+00  0.000000E+00  4.813690E-01  1.072641E-02  5.806422E-03  4.812145E-01                                                                                                                                                                                                                                                                                                                                                                                                                                                                                              
  8.750000E+02  1.250000E+02 -5.225000E+03  2.365261E-08 -1.165747E-10 -6.559676E-12 -2.365232E-08  1.240328E-10 -6.159121E-13 -3.464447E-14 -1.240312E-10  0.000000E+00  0.000000E+00  0.000000E+00  0.000000E+00  0.000000E+00  0.000000E+00  0.000000E+00  0.000000E+00  4.886055E-01  5.128482E-03  6.149075E-03  4.885399E-01                                                                                                                                                                                                                                                                                                                                                                                                                                                                                              
  1.050000E+03  1.250000E+02 -5.225000E+03  2.352627E-08 -1.771223E-14 -3.787433E-12 -2.352627E-08  1.233584E-10 -9.356703E-17 -2.000243E-14 -1.233584E-10  0.000000E+00  0.000000E+00  0.000000E+00  0.000000E+00  0.000000E+00  0.000000E+00  0.000000E+00  0.000000E+00  4.919639E-01 -2.011921E-08  6.190402E-03  4.919250E-01                                                                                                                                                                                                                                                                                                                                                                                                                                                                                              
  1.225000E+03  1.250000E+02 -5.225000E+03  2.365262E-08  1.165741E-10 -6.560201E-12 -2.365233E-08  1.240328E-10  6.159091E-13 -3.464725E-14 -1.240313E-10  0.000000E+00  0.000000E+00  0.000000E+00  0.000000E+00  0.000000E+00  0.000000E+00  0.000000E+00  0.000000E+00  4.886055E-01 -5.128515E-03  6.149067E-03  4.885399E-01                                                                                                                                                                                                                                                                                                                                                                                                                                                                                              
  1.475000E+03  1.250000E+02 -5.225000E+03  2.324121E-08  1.872989E-10 -2.816501E-11 -2.324044E-08  1.219260E-10  9.898868E-13 -1.488100E-13 -1.219219E-10  0.000000E+00  0.000000E+00  0.000000E+00  0.000000E+00  0.000000E+00  0.000000E+00  0.000000E+00  0.000000E+00  4.813690E-01 -1.072643E-02  5.806418E-03  4.812145E-01                                                                                                                                                                                                                                                                                                                                                                                                                                                                                              
  1.725000E+03  1.250000E+02 -5.225000E+03  2.262897E-08  1.866854E-10 -5.147472E-11 -2.262814E-08  1.187760E-10  9.870206E-13 -2.721099E-13 -1.187716E-10  0.000000E+00  0.000000E+00  0.000000E+00  0.000000E+00  0.000000E+00  0.000000E+00  0.000000E+00  0.000000E+00  4.739523E-01 -1.039067E-02  5.230366E-03  4.738095E-01                                                                                                                                                                                                                                                                                                                                                                                                                                                                                              
  1.975000E+03  1.250000E+02 -5.225000E+03  2.215907E-08  8.143452E-11 -6.394048E-11 -2.215883E-08  1.163523E-10  4.306543E-13 -3.381342E-13 -1.163510E-10  0.000000E+00  0.000000E+00  0.000000E+00  0.000000E+00  0.000000E+00  0.000000E+00  0.000000E+00  0.000000E+00  4.688082E-01 -4.288377E-03  4.714524E-03  4.687649E-01                                                                                                                                                                                                                                                                                                                                                                                                                                                                                              
  1.250000E+02  1.250000E+02 -4.975000E+03  4.057333E-08  4.078044E-10  4.717261E-10 -4.056854E-08  2.088792E-10  2.105227E-12  2.435158E-12 -2.088544E-10  0.000000E+00  0.000000E+00  0.000000E+00  0.000000E+00  0.000000E+00  0.000000E+00  0.000000E+00  0.000000E+00  7.449141E-01  8.407594E-03  9.053133E-03  7.448116E-01                                                                                                                                                                                                                                                                                                                                                                                                                                                                                              
  3.750000E+02  1.250000E+02 -4.975000E+03  4.100076E-08  1.023444E-09  5.651335E-10 -4.098409E-08  2.109729E-10  5.281169E-12  2.915534E-12 -2.108866E-10  0.000000E+00  0.000000E+00  0.000000E+00  0.000000E+00  0.000000E+00  0.000000E+00  0.000000E+00  0.000000E+00  7.559236E-01  2.044416E-02  1.065597E-02  7.555720E-01                                                                                                                                                                                                                                                                                                                                                                                                                                                                                              
  6.250000E+02  1.250000E+02 -4.975000E+03  4.148678E-08  1.142319E-09  6.829263E-10 -4.146542E-08  2.133224E-10  5.890957E-12  3.520202E-12 -2.132120E-10  0.000000E+00  0.000000E+00  0.000000E+00  0.000000E+00  0.000000E+00  0.000000E+00  0.000000E+00  0.000000E+00  7.709443E-01  2.213819E-02  1.225742E-02  7.705289E-01                                                                                                                                                                                                                                                                                                                                                                                                                                                                                              
  8.750000E+02  1.250000E+02 -4.975000E+03  4.165201E-08  6.227350E-10  7.667111E-10 -4.164029E-08  2.140450E-10  3.209998E-12  3.949315E-12 -2.139845E-10  0.000000E+00  0.000000E+00  0.000000E+00  0.000000E+00  0.000000E+00  0.000000E+00  0.000000E+00  0.000000E+00  7.863811E-01  1.196262E-02  1.311944E-02  7.861806E-01                                                                                                                                                                                                                                                                                                                                                                                                                                                                                              
  1.050000E+03  1.250000E+02 -4.975000E+03  4.160772E-08 -1.305139E-14  7.774602E-10 -4.160046E-08  2.138003E-10 -6.725499E-17  4.004323E-12 -2.137628E-10  0.000000E+00  0.000000E+00  0.000000E+00  0.000000E+00  0.000000E+00  0.000000E+00  0.000000E+00  0.000000E+00  7.890536E-01 -1.337413E-08  1.323106E-02  7.889427E-01                                                                                                                                                                                                                                                                                                                                                                                                                                                                                              
  1.225000E+03  1.250000E+02 -4.975000E+03  4.165200E-08 -6.227459E-10  7.667066E-10 -4.164029E-08  2.140450E-10 -3.210054E-12  3.949292E-12 -2.139845E-10  0.000000E+00  0.000000E+00  0.000000E+00  0.000000E+00  0.000000E+00  0.000000E+00  0.000000E+00  0.000000E+00  7.863811E-01 -1.196265E-02  1.311945E-02  7.861806E-01                                                                                                                                                                                                                                                                                                                                                                                                                                                                                              
  1.475000E+03  1.250000E+02 -4.975000E+03  4.148678E-08 -1.142322E-09  6.829327E-10 -4.146543E-08  2.133225E-10 -5.890970E-12  3.520235E-12 -2.132120E-10  0.000000E+00  0.000000E+00  0.000000E+00  0.000000E+00  0.000000E+00  0.000000E+00  0.000000E+00  0.000000E+00  7.709443E-01 -2.213821E-02  1.225744E-02  7.705289E-01                                                                                                                                                                                                                                                                                                                                                                                                                                                                                              
  1.725000E+03  1.250000E+02 -4.975000E+03  4.100075E-08 -1.023441E-09  5.651519E-10 -4.098408E-08  2.109729E-10 -5.281150E-12  2.915629E-12 -2.108866E-10  0.000000E+00  0.000000E+00  0.000000E+00  0.000000E+00  0.000000E+00  0.000000E+00  0.000000E+00  0.000000E+00  7.559237E-01 -2.044415E-02  1.065600E-02  7.555720E-01                                                                                                                                                                                                                                                                                                                                                                                                                                                                                              
  1.975000E+03  1.250000E+02 -4.975000E+03  4.057333E-08 -4.077960E-10  4.717356E-10 -4.056854E-08  2.088793E-10 -2.105183E-12  2.435207E-12 -2.088544E-10  0.000000E+00  0.000000E+00  0.000000E+00  0.000000E+00  0.000000E+00  0.000000E+00  0.000000E+00  0.000000E+00  7.449140E-01 -8.407570E-03  9.053172E-03  7.448116E-01                                                                                                                                                                                                                                                                                                                                                                                                                                                                                              
  1.250000E+02  1.250000E+02 -4.725000E+03  5.316901E-08  4.503858E-10  5.110568E-10 -5.316464E-08  2.680181E-10  2.263820E-12  2.568610E-12 -2.679963E-10  0.000000E+00  0.000000E+00  0.000000E+00  0.000000E+00  0.000000E+00  0.000000E+00  0.000000E+00  0.000000E+00  9.169848E-01  1.523236E-02  1.767350E-02  9.166879E-01                                                                                                                                                                                                                                                                                                                                                                                                                                                                                              
  3.750000E+02  1.250000E+02 -4.725000E+03  5.334183E-08  1.125858E-09  6.969804E-10 -5.332539E-08  2.687070E-10  5.655895E-12  3.499921E-12 -2.686247E-10  0.000000E+00  0.000000E+00  0.000000E+00  0.000000E+00  0.000000E+00  0.000000E+00  0.000000E+00  0.000000E+00  9.345340E-01  3.650778E-02  2.303859E-02  9.335364E-01                                                                                                                                                                                                                                                                                                                                                                                                                                                                                              
  6.250000E+02  1.250000E+02 -4.725000E+03  5.348204E-08  1.353125E-09  8.979287E-10 -5.345738E-08  2.691658E-10  6.791631E-12  4.503758E-12 -2.690424E-10  0.000000E+00  0.000000E+00  0.000000E+00  0.000000E+00  0.000000E+00  0.000000E+00  0.000000E+00  0.000000E+00  9.548252E-01  4.164713E-02  2.774217E-02  9.535130E-01                                                                                                                                                                                                                                                                                                                                                                                                                                                                                              
  8.750000E+02  1.250000E+02 -4.725000E+03  5.286220E-08  8.398300E-10  1.031417E-09 -5.284546E-08  2.658259E-10  4.212705E-12  5.167953E-12 -2.657423E-10  0.000000E+00  0.000000E+00  0.000000E+00  0.000000E+00  0.000000E+00  0.000000E+00  0.000000E+00  0.000000E+00  9.867254E-01  2.482029E-02  3.006741E-02  9.859548E-01                                                                                                                                                                                                                                                                                                                                                                                                                                                                                              
  1.050000E+03  1.250000E+02 -4.725000E+03  5.247855E-08 -1.410450E-15  1.050065E-09 -5.246805E-08  2.638706E-10 -7.071989E-18  5.260564E-12 -2.638182E-10  0.000000E+00  0.000000E+00  0.000000E+00  0.000000E+00  0.000000E+00  0.000000E+00  0.000000E+00  0.000000E+00  9.958214E-01 -5.937736E-09  3.047484E-02  9.953550E-01                                                                                                                                                                                                                                                                                                                                                                                                                                                                                              
  1.225000E+03  1.250000E+02 -4.725000E+03  5.286219E-08 -8.398316E-10  1.031415E-09 -5.284545E-08  2.658259E-10 -4.212713E-12  5.167947E-12 -2.657422E-10  0.000000E+00  0.000000E+00  0.000000E+00  0.000000E+00  0.000000E+00  0.000000E+00  0.000000E+00  0.000000E+00  9.867254E-01 -2.482029E-02  3.006742E-02  9.859548E-01                                                                                                                                                                                                                                                                                                                                                                                                                                                                                              
  1.475000E+03  1.250000E+02 -4.725000E+03  5.348204E-08 -1.353131E-09  8.979261E-10 -5.345738E-08  2.691658E-10 -6.791660E-12  4.503744E-12 -2.690424E-10  0.000000E+00  0.000000E+00  0.000000E+00  0.000000E+00  0.000000E+00  0.000000E+00  0.000000E+00  0.000000E+00  9.548252E-01 -4.164711E-02  2.774217E-02  9.535130E-01                                                                                                                                                                                                                                                                                                                                                                                                                                                                                              
  1.725000E+03  1.250000E+02 -4.725000E+03  5.334182E-08 -1.125862E-09  6.969838E-10 -5.332538E-08  2.687069E-10 -5.655914E-12  3.499938E-12 -2.686246E-10  0.000000E+00  0.000000E+00  0.000000E+00  0.000000E+00  0.000000E+00  0.000000E+00  0.000000E+00  0.000000E+00  9.345340E-01 -3.650779E-02  2.303858E-02  9.335364E-01                                                                                                                                                                                                                                                                                                                                                                                                                                                                                              