Title="TOUGHREACT V3.30-OMP flowvector.tec: Liq & Gas Fluxes (kg/s/m^2), Pore Velocities (m/s), & Heat Fluxes (J/s/m2)"                                                                                                                                                                                                                                                                                                                                                                                                                                                                                                                                                                                                                                                                                                         
Variables= "X(m)"     "Y(m)"      "Z(m)"     "FluxLiq"   "FluxLiq_X"   "FluxLiq_Y"   "FluxLiq_Z"   "PorVelLiq"  "PorVelLiqX"  "PorVelLiqY"  "PorVelLiqZ"     "FluxGas"   "FluxGas_X"   "FluxGas_Y"   "FluxGas_Z"   "PorVelGas"  "PorVelGasX"  "PorVelGasY"  "PorVelGasZ"    "HeatFlux"  "HeatFlux_X"  "HeatFlux_Y"  "HeatFlux_Z"                                                                                                                                                                                                                                                                                                                                                                                                                                                                                                
Zone T= "1.00000000E+10 sec" I=     9 J=    10 K=    23 F=Point
  1.250000E+02  1.250000E+02 -5.425000E+03  4.687079E-09  1.041661E-09  2.045699E-09 -4.086413E-09  2.595059E-11  5.783252E-12  1.135761E-11 -2.260513E-11  0.000000E+00  0.000000E+00  0.000000E+00  0.000000E+00  0.000000E+00  0.000000E+00  0.000000E+00  0.000000E+00  7.793317E-02  9.073507E-04  1.790734E-03  7.790731E-02                                                                                                                                                                                                                                                                                                                                                                                                                                                                                              
  3.750000E+02  1.250000E+02 -5.425000E+03  5.068968E-09  2.567783E-09  2.134024E-09 -3.814037E-09  2.808482E-11  1.425624E-11  1.184801E-11 -2.109837E-11  0.000000E+00  0.000000E+00  0.000000E+00  0.000000E+00  0.000000E+00  0.000000E+00  0.000000E+00  0.000000E+00  7.830538E-02  2.199454E-03  1.873312E-03  7.825206E-02                                                                                                                                                                                                                                                                                                                                                                                                                                                                                              
  6.250000E+02  1.250000E+02 -5.425000E+03  4.914503E-09  2.730923E-09  2.255668E-09 -3.406811E-09  2.723766E-11  1.516219E-11  1.252347E-11 -1.884571E-11  0.000000E+00  0.000000E+00  0.000000E+00  0.000000E+00  0.000000E+00  0.000000E+00  0.000000E+00  0.000000E+00  7.883223E-02  1.958395E-03  1.982786E-03  7.878295E-02                                                                                                                                                                                                                                                                                                                                                                                                                                                                                              
  8.750000E+02  1.250000E+02 -5.425000E+03  4.115791E-09  1.467127E-09  2.345787E-09 -3.047057E-09  2.280599E-11  8.145839E-12  1.302436E-11 -1.685599E-11  0.000000E+00  0.000000E+00  0.000000E+00  0.000000E+00  0.000000E+00  0.000000E+00  0.000000E+00  0.000000E+00  7.967901E-02 -1.758645E-03  2.062285E-03  7.963290E-02                                                                                                                                                                                                                                                                                                                                                                                                                                                                                              
  1.050000E+03  1.250000E+02 -5.425000E+03  3.655770E-09  1.177460E-14  2.358408E-09 -2.793307E-09  2.025720E-11  6.538186E-17  1.309696E-11 -1.545393E-11  0.000000E+00  0.000000E+00  0.000000E+00  0.000000E+00  0.000000E+00  0.000000E+00  0.000000E+00  0.000000E+00  8.198027E-02  1.037851E-08  2.075255E-03  8.195400E-02                                                                                                                                                                                                                                                                                                                                                                                                                                                                                              
  1.225000E+03  1.250000E+02 -5.425000E+03  4.115785E-09 -1.467110E-09  2.345779E-09 -3.047063E-09  2.280595E-11 -8.145748E-12  1.302431E-11 -1.685602E-11  0.000000E+00  0.000000E+00  0.000000E+00  0.000000E+00  0.000000E+00  0.000000E+00  0.000000E+00  0.000000E+00  7.967900E-02  1.758662E-03  2.062282E-03  7.963289E-02                                                                                                                                                                                                                                                                                                                                                                                                                                                                                              
  1.475000E+03  1.250000E+02 -5.425000E+03  4.914488E-09 -2.730907E-09  2.255670E-09 -3.406801E-09  2.723757E-11 -1.516210E-11  1.252347E-11 -1.884565E-11  0.000000E+00  0.000000E+00  0.000000E+00  0.000000E+00  0.000000E+00  0.000000E+00  0.000000E+00  0.000000E+00  7.883224E-02 -1.958381E-03  1.982783E-03  7.878296E-02                                                                                                                                                                                                                                                                                                                                                                                                                                                                                              
  1.725000E+03  1.250000E+02 -5.425000E+03  5.068957E-09 -2.567761E-09  2.134020E-09 -3.814037E-09  2.808475E-11 -1.425612E-11  1.184799E-11 -2.109838E-11  0.000000E+00  0.000000E+00  0.000000E+00  0.000000E+00  0.000000E+00  0.000000E+00  0.000000E+00  0.000000E+00  7.830538E-02 -2.199432E-03  1.873308E-03  7.825206E-02                                                                                                                                                                                                                                                                                                                                                                                                                                                                                              
  1.975000E+03  1.250000E+02 -5.425000E+03  4.687067E-09 -1.041650E-09  2.045688E-09 -4.086407E-09  2.595052E-11 -5.783192E-12  1.135755E-11 -2.260510E-11  0.000000E+00  0.000000E+00  0.000000E+00  0.000000E+00  0.000000E+00  0.000000E+00  0.000000E+00  0.000000E+00  7.793318E-02 -9.073367E-04  1.790727E-03  7.790732E-02                                                                                                                                                                                                                                                                                                                                                                                                                                                                                              
  1.250000E+02  1.250000E+02 -5.225000E+03  1.655513E-08  1.247016E-09  2.191697E-09 -1.636197E-08  9.092747E-11  6.878379E-12  1.208907E-11 -8.985737E-11  0.000000E+00  0.000000E+00  0.000000E+00  0.000000E+00  0.000000E+00  0.000000E+00  0.000000E+00  0.000000E+00  2.001548E-01  1.142745E-03  2.009639E-03  2.001414E-01                                                                                                                                                                                                                                                                                                                                                                                                                                                                                              
  3.750000E+02  1.250000E+02 -5.225000E+03  1.582948E-08  3.073979E-09  2.326810E-09 -1.535282E-08  8.695125E-11  1.695559E-11  1.283422E-11 -8.431080E-11  0.000000E+00  0.000000E+00  0.000000E+00  0.000000E+00  0.000000E+00  0.000000E+00  0.000000E+00  0.000000E+00  2.021666E-01  2.794873E-03  2.171954E-03  2.021356E-01                                                                                                                                                                                                                                                                                                                                                                                                                                                                                              
  6.250000E+02  1.250000E+02 -5.225000E+03  1.442616E-08  3.256636E-09  2.506882E-09 -1.382838E-08  7.924523E-11  1.796301E-11  1.382734E-11 -7.593379E-11  0.000000E+00  0.000000E+00  0.000000E+00  0.000000E+00  0.000000E+00  0.000000E+00  0.000000E+00  0.000000E+00  2.050115E-01  2.911208E-03  2.360138E-03  2.049773E-01                                                                                                                                                                                                                                                                                                                                                                                                                                                                                              
  8.750000E+02  1.250000E+02 -5.225000E+03  1.287214E-08  1.653938E-09  2.637370E-09 -1.249003E-08  7.069668E-11  9.122816E-12  1.454703E-11 -6.857972E-11  0.000000E+00  0.000000E+00  0.000000E+00  0.000000E+00  0.000000E+00  0.000000E+00  0.000000E+00  0.000000E+00  2.081953E-01  1.205779E-03  2.484493E-03  2.081770E-01                                                                                                                                                                                                                                                                                                                                                                                                                                                                                              
  1.050000E+03  1.250000E+02 -5.225000E+03  1.235941E-08  4.461445E-15  2.653555E-09 -1.207119E-08  6.787029E-11  2.460863E-17  1.463656E-11 -6.627328E-11  0.000000E+00  0.000000E+00  0.000000E+00  0.000000E+00  0.000000E+00  0.000000E+00  0.000000E+00  0.000000E+00  2.110687E-01  1.858506E-09  2.501024E-03  2.110538E-01                                                                                                                                                                                                                                                                                                                                                                                                                                                                                              
  1.225000E+03  1.250000E+02 -5.225000E+03  1.287216E-08 -1.653915E-09  2.637376E-09 -1.249005E-08  7.069676E-11 -9.122689E-12  1.454707E-11 -6.857982E-11  0.000000E+00  0.000000E+00  0.000000E+00  0.000000E+00  0.000000E+00  0.000000E+00  0.000000E+00  0.000000E+00  2.081953E-01 -1.205755E-03  2.484500E-03  2.081770E-01                                                                                                                                                                                                                                                                                                                                                                                                                                                                                              
  1.475000E+03  1.250000E+02 -5.225000E+03  1.442615E-08 -3.256616E-09  2.506886E-09 -1.382837E-08  7.924514E-11 -1.796291E-11  1.382736E-11 -7.593373E-11  0.000000E+00  0.000000E+00  0.000000E+00  0.000000E+00  0.000000E+00  0.000000E+00  0.000000E+00  0.000000E+00  2.050115E-01 -2.911191E-03  2.360131E-03  2.049773E-01                                                                                                                                                                                                                                                                                                                                                                                                                                                                                              
  1.725000E+03  1.250000E+02 -5.225000E+03  1.582951E-08 -3.073961E-09  2.326807E-09 -1.535285E-08  8.695143E-11 -1.695549E-11  1.283420E-11 -8.431100E-11  0.000000E+00  0.000000E+00  0.000000E+00  0.000000E+00  0.000000E+00  0.000000E+00  0.000000E+00  0.000000E+00  2.021666E-01 -2.794858E-03  2.171952E-03  2.021356E-01                                                                                                                                                                                                                                                                                                                                                                                                                                                                                              
  1.975000E+03  1.250000E+02 -5.225000E+03  1.655516E-08 -1.246999E-09  2.191677E-09 -1.636200E-08  9.092762E-11 -6.878284E-12  1.208896E-11 -8.985755E-11  0.000000E+00  0.000000E+00  0.000000E+00  0.000000E+00  0.000000E+00  0.000000E+00  0.000000E+00  0.000000E+00  2.001548E-01 -1.142724E-03  2.009616E-03  2.001414E-01                                                                                                                                                                                                                                                                                                                                                                                                                                                                                              
  1.250000E+02  1.250000E+02 -4.975000E+03  4.951681E-08  2.074046E-09  2.886299E-09 -4.938909E-08  2.665389E-10  1.129413E-11  1.571667E-11 -2.658354E-10  0.000000E+00  0.000000E+00  0.000000E+00  0.000000E+00  0.000000E+00  0.000000E+00  0.000000E+00  0.000000E+00  5.024331E-01  2.785511E-03  4.118397E-03  5.024085E-01                                                                                                                                                                                                                                                                                                                                                                                                                                                                                              
  3.750000E+02  1.250000E+02 -4.975000E+03  4.800798E-08  5.129278E-09  3.277418E-09 -4.762053E-08  2.583371E-10  2.792919E-11  1.784403E-11 -2.562023E-10  0.000000E+00  0.000000E+00  0.000000E+00  0.000000E+00  0.000000E+00  0.000000E+00  0.000000E+00  0.000000E+00  5.122864E-01  6.722759E-03  5.009464E-03  5.122178E-01                                                                                                                                                                                                                                                                                                                                                                                                                                                                                              
  6.250000E+02  1.250000E+02 -4.975000E+03  4.542272E-08  5.597173E-09  3.751178E-09 -4.492019E-08  2.442897E-10  3.047339E-11  2.042013E-11 -2.415199E-10  0.000000E+00  0.000000E+00  0.000000E+00  0.000000E+00  0.000000E+00  0.000000E+00  0.000000E+00  0.000000E+00  5.254309E-01  7.560238E-03  5.837839E-03  5.253440E-01                                                                                                                                                                                                                                                                                                                                                                                                                                                                                              
  8.750000E+02  1.250000E+02 -4.975000E+03  4.256313E-08  3.003862E-09  4.079510E-09 -4.226055E-08  2.287416E-10  1.635282E-11  2.220392E-11 -2.270733E-10  0.000000E+00  0.000000E+00  0.000000E+00  0.000000E+00  0.000000E+00  0.000000E+00  0.000000E+00  0.000000E+00  5.398618E-01  4.350354E-03  6.304905E-03  5.398074E-01                                                                                                                                                                                                                                                                                                                                                                                                                                                                                              
  1.050000E+03  1.250000E+02 -4.975000E+03  4.201673E-08 -1.670640E-14  4.121147E-09 -4.181413E-08  2.257657E-10 -9.094495E-17  2.242997E-11 -2.246487E-10  0.000000E+00  0.000000E+00  0.000000E+00  0.000000E+00  0.000000E+00  0.000000E+00  0.000000E+00  0.000000E+00  5.426545E-01 -4.854330E-08  6.380223E-03  5.426169E-01                                                                                                                                                                                                                                                                                                                                                                                                                                                                                              
  1.225000E+03  1.250000E+02 -4.975000E+03  4.256327E-08 -3.003848E-09  4.079557E-09 -4.226069E-08  2.287423E-10 -1.635274E-11  2.220417E-11 -2.270740E-10  0.000000E+00  0.000000E+00  0.000000E+00  0.000000E+00  0.000000E+00  0.000000E+00  0.000000E+00  0.000000E+00  5.398617E-01 -4.350381E-03  6.304988E-03  5.398074E-01                                                                                                                                                                                                                                                                                                                                                                                                                                                                                              
  1.475000E+03  1.250000E+02 -4.975000E+03  4.542274E-08 -5.597177E-09  3.751230E-09 -4.492021E-08  2.442898E-10 -3.047341E-11  2.042041E-11 -2.415200E-10  0.000000E+00  0.000000E+00  0.000000E+00  0.000000E+00  0.000000E+00  0.000000E+00  0.000000E+00  0.000000E+00  5.254309E-01 -7.560223E-03  5.837880E-03  5.253441E-01                                                                                                                                                                                                                                                                                                                                                                                                                                                                                              
  1.725000E+03  1.250000E+02 -4.975000E+03  4.800807E-08 -5.129298E-09  3.277451E-09 -4.762062E-08  2.583376E-10 -2.792930E-11  1.784421E-11 -2.562028E-10  0.000000E+00  0.000000E+00  0.000000E+00  0.000000E+00  0.000000E+00  0.000000E+00  0.000000E+00  0.000000E+00  5.122863E-01 -6.722745E-03  5.009489E-03  5.122177E-01                                                                                                                                                                                                                                                                                                                                                                                                                                                                                              
  1.975000E+03  1.250000E+02 -4.975000E+03  4.951687E-08 -2.074032E-09  2.886341E-09 -4.938915E-08  2.665393E-10 -1.129405E-11  1.571690E-11 -2.658357E-10  0.000000E+00  0.000000E+00  0.000000E+00  0.000000E+00  0.000000E+00  0.000000E+00  0.000000E+00  0.000000E+00  5.024331E-01 -2.785492E-03  4.118401E-03  5.024085E-01                                                                                                                                                                                                                                                                                                                                                                                                                                                                                              
  1.250000E+02  1.250000E+02 -4.725000E+03  1.337893E-07  3.356624E-09  4.138519E-09 -1.336831E-07  6.937924E-10  1.764365E-11  2.174969E-11 -6.932269E-10  0.000000E+00  0.000000E+00  0.000000E+00  0.000000E+00  0.000000E+00  0.000000E+00  0.000000E+00  0.000000E+00  1.595673E+00  1.061642E-02  1.547031E-02  1.595563E+00                                                                                                                                                                                                                                                                                                                                                                                                                                                                                              
  3.750000E+02  1.250000E+02 -4.725000E+03  1.323163E-07  8.253257E-09  5.388818E-09 -1.319486E-07  6.855609E-10  4.336230E-11  2.829610E-11 -6.836028E-10  0.000000E+00  0.000000E+00  0.000000E+00  0.000000E+00  0.000000E+00  0.000000E+00  0.000000E+00  0.000000E+00  1.632058E+00  2.483490E-02  2.118430E-02  1.631732E+00                                                                                                                                                                                                                                                                                                                                                                                                                                                                                              
  6.250000E+02  1.250000E+02 -4.725000E+03  1.300895E-07  9.555983E-09  6.711857E-09 -1.295644E-07  6.732105E-10  5.016863E-11  3.520741E-11 -6.704147E-10  0.000000E+00  0.000000E+00  0.000000E+00  0.000000E+00  0.000000E+00  0.000000E+00  0.000000E+00  0.000000E+00  1.677231E+00  2.959484E-02  2.583810E-02  1.676770E+00                                                                                                                                                                                                                                                                                                                                                                                                                                                                                              
  8.750000E+02  1.250000E+02 -4.725000E+03  1.252242E-07  5.666823E-09  7.601568E-09 -1.248647E-07  6.472078E-10  2.973379E-11  3.983307E-11 -6.452962E-10  0.000000E+00  0.000000E+00  0.000000E+00  0.000000E+00  0.000000E+00  0.000000E+00  0.000000E+00  0.000000E+00  1.737160E+00  1.928019E-02  2.833195E-02  1.736822E+00                                                                                                                                                                                                                                                                                                                                                                                                                                                                                              
  1.050000E+03  1.250000E+02 -4.725000E+03  1.234438E-07 -2.033651E-13  7.738382E-09 -1.232010E-07  6.378785E-10 -1.066565E-15  4.054205E-11 -6.365889E-10  0.000000E+00  0.000000E+00  0.000000E+00  0.000000E+00  0.000000E+00  0.000000E+00  0.000000E+00  0.000000E+00  1.752616E+00 -6.357080E-08  2.890281E-02  1.752377E+00                                                                                                                                                                                                                                                                                                                                                                                                                                                                                              
  1.225000E+03  1.250000E+02 -4.725000E+03  1.252242E-07 -5.666886E-09  7.601663E-09 -1.248648E-07  6.472080E-10 -2.973412E-11  3.983356E-11 -6.452964E-10  0.000000E+00  0.000000E+00  0.000000E+00  0.000000E+00  0.000000E+00  0.000000E+00  0.000000E+00  0.000000E+00  1.737160E+00 -1.928012E-02  2.833189E-02  1.736822E+00                                                                                                                                                                                                                                                                                                                                                                                                                                                                                              
  1.475000E+03  1.250000E+02 -4.725000E+03  1.300896E-07 -9.555906E-09  6.711907E-09 -1.295644E-07  6.732106E-10 -5.016822E-11  3.520767E-11 -6.704148E-10  0.000000E+00  0.000000E+00  0.000000E+00  0.000000E+00  0.000000E+00  0.000000E+00  0.000000E+00  0.000000E+00  1.677231E+00 -2.959483E-02  2.583788E-02  1.676770E+00                                                                                                                                                                                                                                                                                                                                                                                                                                                                                              
  1.725000E+03  1.250000E+02 -4.725000E+03  1.323163E-07 -8.253272E-09  5.388869E-09 -1.319486E-07  6.855609E-10 -4.336239E-11  2.829637E-11 -6.836028E-10  0.000000E+00  0.000000E+00  0.000000E+00  0.000000E+00  0.000000E+00  0.000000E+00  0.000000E+00  0.000000E+00  1.632058E+00 -2.483499E-02  2.118425E-02  1.631732E+00                                                                                                                                                                                                                                                                                                                                                                                                                                                                                              