Title="TOUGHREACT V3.30-OMP flowvector.tec: Liq & Gas Fluxes (kg/s/m^2), Pore Velocities (m/s), & Heat Fluxes (J/s/m2)"                                                                                                                                                                                                                                                                                                                                                                                                                                                                                                                                                                                                                                                                                                         
Variables= "X(m)"     "Y(m)"      "Z(m)"     "FluxLiq"   "FluxLiq_X"   "FluxLiq_Y"   "FluxLiq_Z"   "PorVelLiq"  "PorVelLiqX"  "PorVelLiqY"  "PorVelLiqZ"     "FluxGas"   "FluxGas_X"   "FluxGas_Y"   "FluxGas_Z"   "PorVelGas"  "PorVelGasX"  "PorVelGasY"  "PorVelGasZ"    "HeatFlux"  "HeatFlux_X"  "HeatFlux_Y"  "HeatFlux_Z"                                                                                                                                                                                                                                                                                                                                                                                                                                                                                                
Zone T= "1.00000000E+09 sec" I=     9 J=    10 K=    23 F=Point
  1.250000E+02  1.250000E+02 -5.425000E+03  1.014262E-08  2.069415E-09  5.264279E-09 -8.418886E-09  5.627182E-11  1.151159E-11  2.928378E-11 -4.665256E-11  0.000000E+00  0.000000E+00  0.000000E+00  0.000000E+00  0.000000E+00  0.000000E+00  0.000000E+00  0.000000E+00  7.864647E-02  1.795083E-03  4.566640E-03  7.849326E-02                                                                                                                                                                                                                                                                                                                                                                                                                                                                                              
  3.750000E+02  1.250000E+02 -5.425000E+03  1.073952E-08  5.054816E-09  5.393307E-09 -7.790918E-09  5.962111E-11  2.811868E-11  3.000172E-11 -4.317306E-11  0.000000E+00  0.000000E+00  0.000000E+00  0.000000E+00  0.000000E+00  0.000000E+00  0.000000E+00  0.000000E+00  7.927856E-02  4.384615E-03  4.678546E-03  7.901884E-02                                                                                                                                                                                                                                                                                                                                                                                                                                                                                              
  6.250000E+02  1.250000E+02 -5.425000E+03  1.029050E-08  5.271134E-09  5.537103E-09 -6.888398E-09  5.714602E-11  2.932221E-11  3.080191E-11 -3.817222E-11  0.000000E+00  0.000000E+00  0.000000E+00  0.000000E+00  0.000000E+00  0.000000E+00  0.000000E+00  0.000000E+00  8.004885E-02  4.560565E-03  4.803283E-03  7.977436E-02                                                                                                                                                                                                                                                                                                                                                                                                                                                                                              
  8.750000E+02  1.250000E+02 -5.425000E+03  8.688605E-09  2.566090E-09  5.619360E-09 -6.109815E-09  4.824216E-11  1.427475E-11  3.125975E-11 -3.385801E-11  0.000000E+00  0.000000E+00  0.000000E+00  0.000000E+00  0.000000E+00  0.000000E+00  0.000000E+00  0.000000E+00  8.060128E-02  1.466923E-03  4.874691E-03  8.044036E-02                                                                                                                                                                                                                                                                                                                                                                                                                                                                                              
  1.050000E+03  1.250000E+02 -5.425000E+03  8.120898E-09 -4.514300E-15  5.630020E-09 -5.852508E-09  4.508765E-11 -2.511316E-17  3.132078E-11 -3.243308E-11  0.000000E+00  0.000000E+00  0.000000E+00  0.000000E+00  0.000000E+00  0.000000E+00  0.000000E+00  0.000000E+00  8.144416E-02 -4.576170E-09  4.885200E-03  8.129752E-02                                                                                                                                                                                                                                                                                                                                                                                                                                                                                              
  1.225000E+03  1.250000E+02 -5.425000E+03  8.688604E-09 -2.566087E-09  5.619364E-09 -6.109811E-09  4.824215E-11 -1.427474E-11  3.125977E-11 -3.385799E-11  0.000000E+00  0.000000E+00  0.000000E+00  0.000000E+00  0.000000E+00  0.000000E+00  0.000000E+00  0.000000E+00  8.060129E-02 -1.466921E-03  4.874694E-03  8.044037E-02                                                                                                                                                                                                                                                                                                                                                                                                                                                                                              
  1.475000E+03  1.250000E+02 -5.425000E+03  1.029050E-08 -5.271131E-09  5.537098E-09 -6.888403E-09  5.714602E-11 -2.932219E-11  3.080188E-11 -3.817225E-11  0.000000E+00  0.000000E+00  0.000000E+00  0.000000E+00  0.000000E+00  0.000000E+00  0.000000E+00  0.000000E+00  8.004885E-02 -4.560561E-03  4.803278E-03  7.977436E-02                                                                                                                                                                                                                                                                                                                                                                                                                                                                                              
  1.725000E+03  1.250000E+02 -5.425000E+03  1.073953E-08 -5.054821E-09  5.393308E-09 -7.790920E-09  5.962113E-11 -2.811871E-11  3.000172E-11 -4.317308E-11  0.000000E+00  0.000000E+00  0.000000E+00  0.000000E+00  0.000000E+00  0.000000E+00  0.000000E+00  0.000000E+00  7.927856E-02 -4.384618E-03  4.678545E-03  7.901884E-02                                                                                                                                                                                                                                                                                                                                                                                                                                                                                              
  1.975000E+03  1.250000E+02 -5.425000E+03  1.014262E-08 -2.069417E-09  5.264287E-09 -8.418884E-09  5.627183E-11 -1.151161E-11  2.928382E-11 -4.665254E-11  0.000000E+00  0.000000E+00  0.000000E+00  0.000000E+00  0.000000E+00  0.000000E+00  0.000000E+00  0.000000E+00  7.864647E-02 -1.795085E-03  4.566647E-03  7.849326E-02                                                                                                                                                                                                                                                                                                                                                                                                                                                                                              
  1.250000E+02  1.250000E+02 -5.225000E+03  3.038417E-08  2.521182E-09  5.954642E-09 -2.968811E-08  1.674489E-10  1.392815E-11  3.289617E-11 -1.635940E-10  0.000000E+00  0.000000E+00  0.000000E+00  0.000000E+00  0.000000E+00  0.000000E+00  0.000000E+00  0.000000E+00  1.490796E-01  2.110983E-03  4.986130E-03  1.489812E-01                                                                                                                                                                                                                                                                                                                                                                                                                                                                                              
  3.750000E+02  1.250000E+02 -5.225000E+03  2.858785E-08  6.155572E-09  6.169484E-09 -2.722703E-08  1.575730E-10  3.400634E-11  3.408333E-11 -1.500371E-10  0.000000E+00  0.000000E+00  0.000000E+00  0.000000E+00  0.000000E+00  0.000000E+00  0.000000E+00  0.000000E+00  1.511695E-01  5.154062E-03  5.166069E-03  1.509933E-01                                                                                                                                                                                                                                                                                                                                                                                                                                                                                              
  6.250000E+02  1.250000E+02 -5.225000E+03  2.541385E-08  6.485927E-09  6.386766E-09 -2.372774E-08  1.400969E-10  3.583168E-11  3.528411E-11 -1.307603E-10  0.000000E+00  0.000000E+00  0.000000E+00  0.000000E+00  0.000000E+00  0.000000E+00  0.000000E+00  0.000000E+00  1.540420E-01  5.430441E-03  5.348105E-03  1.538533E-01                                                                                                                                                                                                                                                                                                                                                                                                                                                                                              
  8.750000E+02  1.250000E+02 -5.225000E+03  2.193272E-08  3.334028E-09  6.494847E-09 -2.068200E-08  1.209073E-10  1.841907E-11  3.588154E-11 -1.139817E-10  0.000000E+00  0.000000E+00  0.000000E+00  0.000000E+00  0.000000E+00  0.000000E+00  0.000000E+00  0.000000E+00  1.564884E-01  2.777501E-03  5.438732E-03  1.563692E-01                                                                                                                                                                                                                                                                                                                                                                                                                                                                                              
  1.050000E+03  1.250000E+02 -5.225000E+03  2.112450E-08  5.242482E-16  6.507251E-09 -2.009727E-08  1.164450E-10  2.896271E-18  3.595014E-11 -1.107566E-10  0.000000E+00  0.000000E+00  0.000000E+00  0.000000E+00  0.000000E+00  0.000000E+00  0.000000E+00  0.000000E+00  1.576008E-01  4.686144E-10  5.449162E-03  1.575065E-01                                                                                                                                                                                                                                                                                                                                                                                                                                                                                              
  1.225000E+03  1.250000E+02 -5.225000E+03  2.193270E-08 -3.334028E-09  6.494847E-09 -2.068199E-08  1.209072E-10 -1.841907E-11  3.588154E-11 -1.139816E-10  0.000000E+00  0.000000E+00  0.000000E+00  0.000000E+00  0.000000E+00  0.000000E+00  0.000000E+00  0.000000E+00  1.564884E-01 -2.777501E-03  5.438732E-03  1.563692E-01                                                                                                                                                                                                                                                                                                                                                                                                                                                                                              
  1.475000E+03  1.250000E+02 -5.225000E+03  2.541386E-08 -6.485928E-09  6.386766E-09 -2.372776E-08  1.400970E-10 -3.583168E-11  3.528411E-11 -1.307604E-10  0.000000E+00  0.000000E+00  0.000000E+00  0.000000E+00  0.000000E+00  0.000000E+00  0.000000E+00  0.000000E+00  1.540420E-01 -5.430442E-03  5.348105E-03  1.538533E-01                                                                                                                                                                                                                                                                                                                                                                                                                                                                                              
  1.725000E+03  1.250000E+02 -5.225000E+03  2.858786E-08 -6.155571E-09  6.169485E-09 -2.722705E-08  1.575730E-10 -3.400633E-11  3.408333E-11 -1.500372E-10  0.000000E+00  0.000000E+00  0.000000E+00  0.000000E+00  0.000000E+00  0.000000E+00  0.000000E+00  0.000000E+00  1.511695E-01 -5.154061E-03  5.166070E-03  1.509932E-01                                                                                                                                                                                                                                                                                                                                                                                                                                                                                              
  1.975000E+03  1.250000E+02 -5.225000E+03  3.038416E-08 -2.521181E-09  5.954642E-09 -2.968810E-08  1.674488E-10 -1.392815E-11  3.289617E-11 -1.635939E-10  0.000000E+00  0.000000E+00  0.000000E+00  0.000000E+00  0.000000E+00  0.000000E+00  0.000000E+00  0.000000E+00  1.490796E-01 -2.110981E-03  4.986130E-03  1.489812E-01                                                                                                                                                                                                                                                                                                                                                                                                                                                                                              
  1.250000E+02  1.250000E+02 -4.975000E+03  6.477795E-08  4.275637E-09  8.931477E-09 -6.401664E-08  3.538152E-10  2.341839E-11  4.891920E-11 -3.496336E-10  0.000000E+00  0.000000E+00  0.000000E+00  0.000000E+00  0.000000E+00  0.000000E+00  0.000000E+00  0.000000E+00  1.597699E-01  3.437710E-03  7.188528E-03  1.595711E-01                                                                                                                                                                                                                                                                                                                                                                                                                                                                                              
  3.750000E+02  1.250000E+02 -4.975000E+03  6.038838E-08  1.039308E-08  9.598819E-09 -5.870778E-08  3.298582E-10  5.692508E-11  5.257494E-11 -3.206273E-10  0.000000E+00  0.000000E+00  0.000000E+00  0.000000E+00  0.000000E+00  0.000000E+00  0.000000E+00  0.000000E+00  1.655140E-01  8.354853E-03  7.736520E-03  1.651218E-01                                                                                                                                                                                                                                                                                                                                                                                                                                                                                              
  6.250000E+02  1.250000E+02 -4.975000E+03  5.350756E-08  1.114944E-08  1.016900E-08 -5.133557E-08  2.922781E-10  6.106858E-11  5.569890E-11 -2.803476E-10  0.000000E+00  0.000000E+00  0.000000E+00  0.000000E+00  0.000000E+00  0.000000E+00  0.000000E+00  0.000000E+00  1.731673E-01  8.975460E-03  8.203893E-03  1.727399E-01                                                                                                                                                                                                                                                                                                                                                                                                                                                                                              
  8.750000E+02  1.250000E+02 -4.975000E+03  4.579656E-08  5.966753E-09  1.037475E-08 -4.420506E-08  2.501421E-10  3.268192E-11  5.682655E-11 -2.413995E-10  0.000000E+00  0.000000E+00  0.000000E+00  0.000000E+00  0.000000E+00  0.000000E+00  0.000000E+00  0.000000E+00  1.809189E-01  4.817790E-03  8.372666E-03  1.806609E-01                                                                                                                                                                                                                                                                                                                                                                                                                                                                                              
  1.050000E+03  1.250000E+02 -4.975000E+03  4.427849E-08  1.457086E-14  1.039852E-08 -4.304016E-08  2.418407E-10  7.981049E-17  5.695685E-11 -2.350379E-10  0.000000E+00  0.000000E+00  0.000000E+00  0.000000E+00  0.000000E+00  0.000000E+00  0.000000E+00  0.000000E+00  1.823478E-01  1.220852E-08  8.392422E-03  1.821545E-01                                                                                                                                                                                                                                                                                                                                                                                                                                                                                              
  1.225000E+03  1.250000E+02 -4.975000E+03  4.579642E-08 -5.966756E-09  1.037474E-08 -4.420492E-08  2.501414E-10 -3.268194E-11  5.682651E-11 -2.413987E-10  0.000000E+00  0.000000E+00  0.000000E+00  0.000000E+00  0.000000E+00  0.000000E+00  0.000000E+00  0.000000E+00  1.809190E-01 -4.817792E-03  8.372659E-03  1.806610E-01                                                                                                                                                                                                                                                                                                                                                                                                                                                                                              
  1.475000E+03  1.250000E+02 -4.975000E+03  5.350764E-08 -1.114946E-08  1.016901E-08 -5.133564E-08  2.922786E-10 -6.106871E-11  5.569893E-11 -2.803480E-10  0.000000E+00  0.000000E+00  0.000000E+00  0.000000E+00  0.000000E+00  0.000000E+00  0.000000E+00  0.000000E+00  1.731673E-01 -8.975479E-03  8.203899E-03  1.727398E-01                                                                                                                                                                                                                                                                                                                                                                                                                                                                                              
  1.725000E+03  1.250000E+02 -4.975000E+03  6.038857E-08 -1.039306E-08  9.598827E-09 -5.870797E-08  3.298592E-10 -5.692498E-11  5.257499E-11 -3.206283E-10  0.000000E+00  0.000000E+00  0.000000E+00  0.000000E+00  0.000000E+00  0.000000E+00  0.000000E+00  0.000000E+00  1.655138E-01 -8.354837E-03  7.736526E-03  1.651217E-01                                                                                                                                                                                                                                                                                                                                                                                                                                                                                              
  1.975000E+03  1.250000E+02 -4.975000E+03  6.477784E-08 -4.275613E-09  8.931467E-09 -6.401654E-08  3.538146E-10 -2.341826E-11  4.891915E-11 -3.496330E-10  0.000000E+00  0.000000E+00  0.000000E+00  0.000000E+00  0.000000E+00  0.000000E+00  0.000000E+00  0.000000E+00  1.597700E-01 -3.437690E-03  7.188520E-03  1.595712E-01                                                                                                                                                                                                                                                                                                                                                                                                                                                                                              
  1.250000E+02  1.250000E+02 -4.725000E+03  2.284907E-07  7.688595E-09  1.604235E-08 -2.277971E-07  1.198142E-09  4.162744E-11  8.684607E-11 -1.194265E-09  0.000000E+00  0.000000E+00  0.000000E+00  0.000000E+00  0.000000E+00  0.000000E+00  0.000000E+00  0.000000E+00  1.761841E+00  7.206661E-03  1.590225E-02  1.761755E+00                                                                                                                                                                                                                                                                                                                                                                                                                                                                                              
  3.750000E+02  1.250000E+02 -4.725000E+03  2.227128E-07  1.847733E-08  1.843955E-08 -2.211777E-07  1.166990E-09  1.000318E-10  9.980784E-11 -1.158404E-09  0.000000E+00  0.000000E+00  0.000000E+00  0.000000E+00  0.000000E+00  0.000000E+00  0.000000E+00  0.000000E+00  1.807374E+00  1.720676E-02  1.865747E-02  1.807196E+00                                                                                                                                                                                                                                                                                                                                                                                                                                                                                              
  6.250000E+02  1.250000E+02 -4.725000E+03  2.145253E-07  2.069165E-08  2.015513E-08 -2.125717E-07  1.122742E-09  1.120044E-10  1.090746E-10 -1.111804E-09  0.000000E+00  0.000000E+00  0.000000E+00  0.000000E+00  0.000000E+00  0.000000E+00  0.000000E+00  0.000000E+00  1.864098E+00  1.983355E-02  2.057588E-02  1.863879E+00                                                                                                                                                                                                                                                                                                                                                                                                                                                                                              
  8.750000E+02  1.250000E+02 -4.725000E+03  2.014526E-07  1.207666E-08  2.051683E-08 -2.000409E-07  1.052648E-09  6.536423E-11  1.110099E-10 -1.044735E-09  0.000000E+00  0.000000E+00  0.000000E+00  0.000000E+00  0.000000E+00  0.000000E+00  0.000000E+00  0.000000E+00  1.934344E+00  1.229659E-02  2.093432E-02  1.934192E+00                                                                                                                                                                                                                                                                                                                                                                                                                                                                                              
  1.050000E+03  1.250000E+02 -4.725000E+03  1.972040E-07  1.945016E-13  2.057956E-08 -1.961272E-07  1.030057E-09  1.052641E-15  1.113438E-10 -1.024022E-09  0.000000E+00  0.000000E+00  0.000000E+00  0.000000E+00  0.000000E+00  0.000000E+00  0.000000E+00  0.000000E+00  1.953572E+00  1.567287E-07  2.099484E-02  1.953460E+00                                                                                                                                                                                                                                                                                                                                                                                                                                                                                              
  1.225000E+03  1.250000E+02 -4.725000E+03  2.014525E-07 -1.207668E-08  2.051679E-08 -2.000408E-07  1.052648E-09 -6.536434E-11  1.110097E-10 -1.044735E-09  0.000000E+00  0.000000E+00  0.000000E+00  0.000000E+00  0.000000E+00  0.000000E+00  0.000000E+00  0.000000E+00  1.934344E+00 -1.229660E-02  2.093428E-02  1.934192E+00                                                                                                                                                                                                                                                                                                                                                                                                                                                                                              
  1.475000E+03  1.250000E+02 -4.725000E+03  2.145253E-07 -2.069198E-08  2.015515E-08 -2.125717E-07  1.122742E-09 -1.120062E-10  1.090748E-10 -1.111804E-09  0.000000E+00  0.000000E+00  0.000000E+00  0.000000E+00  0.000000E+00  0.000000E+00  0.000000E+00  0.000000E+00  1.864098E+00 -1.983382E-02  2.057589E-02  1.863879E+00                                                                                                                                                                                                                                                                                                                                                                                                                                                                                              
  1.725000E+03  1.250000E+02 -4.725000E+03  2.227129E-07 -1.847714E-08  1.843967E-08 -2.211778E-07  1.166991E-09 -1.000308E-10  9.980851E-11 -1.158404E-09  0.000000E+00  0.000000E+00  0.000000E+00  0.000000E+00  0.000000E+00  0.000000E+00  0.000000E+00  0.000000E+00  1.807374E+00 -1.720662E-02  1.865757E-02  1.807196E+00                                                                                                                                                                                                                                                                                                                                                                                                                                                                                              