Title="TOUGHREACT V3.30-OMP flowvector.tec: Liq & Gas Fluxes (kg/s/m^2), Pore Velocities (m/s), & Heat Fluxes (J/s/m2)"                                                                                                                                                                                                                                                                                                                                                                                                                                                                                                                                                                                                                                                                                                         
Variables= "X(m)"     "Y(m)"      "Z(m)"     "FluxLiq"   "FluxLiq_X"   "FluxLiq_Y"   "FluxLiq_Z"   "PorVelLiq"  "PorVelLiqX"  "PorVelLiqY"  "PorVelLiqZ"     "FluxGas"   "FluxGas_X"   "FluxGas_Y"   "FluxGas_Z"   "PorVelGas"  "PorVelGasX"  "PorVelGasY"  "PorVelGasZ"    "HeatFlux"  "HeatFlux_X"  "HeatFlux_Y"  "HeatFlux_Z"                                                                                                                                                                                                                                                                                                                                                                                                                                                                                                
Zone T= "5.18400000E+05 sec" I=     9 J=    10 K=    23 F=Point
  1.250000E+02  1.250000E+02 -5.425000E+03  3.432343E-07 -2.202637E-16 -4.733544E-16  3.432343E-07  1.890074E-09 -1.216650E-18 -2.614625E-18  1.890074E-09  0.000000E+00  0.000000E+00  0.000000E+00  0.000000E+00  0.000000E+00  0.000000E+00  0.000000E+00  0.000000E+00  3.858327E-01 -1.974872E-10 -4.207854E-10  3.858327E-01                                                                                                                                                                                                                                                                                                                                                                                                                                                                                              
  3.750000E+02  1.250000E+02 -5.425000E+03  3.432343E-07 -3.435372E-16 -6.262646E-17  3.432343E-07  1.890074E-09 -1.897565E-18 -3.459240E-19  1.890074E-09  0.000000E+00  0.000000E+00  0.000000E+00  0.000000E+00  0.000000E+00  0.000000E+00  0.000000E+00  0.000000E+00  3.858327E-01 -2.985594E-10 -5.092031E-11  3.858327E-01                                                                                                                                                                                                                                                                                                                                                                                                                                                                                              
  6.250000E+02  1.250000E+02 -5.425000E+03  3.432343E-07 -6.513782E-14 -3.841282E-18  3.432343E-07  1.890074E-09 -3.597958E-16 -2.121774E-20  1.890074E-09  0.000000E+00  0.000000E+00  0.000000E+00  0.000000E+00  0.000000E+00  0.000000E+00  0.000000E+00  0.000000E+00  3.858327E-01 -5.662896E-08 -3.335398E-12  3.858327E-01                                                                                                                                                                                                                                                                                                                                                                                                                                                                                              
  8.750000E+02  1.250000E+02 -5.425000E+03  3.432344E-07 -1.450460E-11 -3.953900E-16  3.432344E-07  1.890075E-09 -8.011772E-14 -2.183979E-18  1.890075E-09  0.000000E+00  0.000000E+00  0.000000E+00  0.000000E+00  0.000000E+00  0.000000E+00  0.000000E+00  0.000000E+00  3.858328E-01 -1.306780E-05 -3.522605E-10  3.858328E-01                                                                                                                                                                                                                                                                                                                                                                                                                                                                                              
  1.050000E+03  1.250000E+02 -5.425000E+03  3.432471E-07 -5.035631E-19 -2.507228E-17  3.432471E-07  1.890145E-09 -2.781486E-21 -1.384895E-19  1.890145E-09  0.000000E+00  0.000000E+00  0.000000E+00  0.000000E+00  0.000000E+00  0.000000E+00  0.000000E+00  0.000000E+00  3.858443E-01 -4.376927E-13 -2.767931E-11  3.858443E-01                                                                                                                                                                                                                                                                                                                                                                                                                                                                                              
  1.225000E+03  1.250000E+02 -5.425000E+03  3.432344E-07  1.450460E-11 -3.950194E-16  3.432344E-07  1.890075E-09  8.011772E-14 -2.181932E-18  1.890075E-09  0.000000E+00  0.000000E+00  0.000000E+00  0.000000E+00  0.000000E+00  0.000000E+00  0.000000E+00  0.000000E+00  3.858328E-01  1.306780E-05 -3.519384E-10  3.858328E-01                                                                                                                                                                                                                                                                                                                                                                                                                                                                                              
  1.475000E+03  1.250000E+02 -5.425000E+03  3.432343E-07  6.502041E-14 -3.696669E-18  3.432343E-07  1.890074E-09  3.591473E-16 -2.041895E-20  1.890074E-09  0.000000E+00  0.000000E+00  0.000000E+00  0.000000E+00  0.000000E+00  0.000000E+00  0.000000E+00  0.000000E+00  3.858327E-01  5.653052E-08 -3.209702E-12  3.858327E-01                                                                                                                                                                                                                                                                                                                                                                                                                                                                                              
  1.725000E+03  1.250000E+02 -5.425000E+03  3.432343E-07  4.014818E-17 -1.355747E-19  3.432343E-07  1.890074E-09  2.217628E-19 -7.488614E-22  1.890074E-09  0.000000E+00  0.000000E+00  0.000000E+00  0.000000E+00  0.000000E+00  0.000000E+00  0.000000E+00  0.000000E+00  3.858327E-01  2.894835E-11 -1.181245E-13  3.858327E-01                                                                                                                                                                                                                                                                                                                                                                                                                                                                                              
  1.975000E+03  1.250000E+02 -5.425000E+03  3.432343E-07  3.437270E-17  9.038311E-21  3.432343E-07  1.890074E-09  1.898613E-19  4.992409E-23  1.890074E-09  0.000000E+00  0.000000E+00  0.000000E+00  0.000000E+00  0.000000E+00  0.000000E+00  0.000000E+00  0.000000E+00  3.858327E-01  2.640246E-11  7.856021E-15  3.858327E-01                                                                                                                                                                                                                                                                                                                                                                                                                                                                                              
  1.250000E+02  1.250000E+02 -5.225000E+03  6.658297E-07 -2.512370E-17  1.254862E-17  6.658297E-07  3.654441E-09 -1.379233E-19  6.888901E-20  3.654441E-09  0.000000E+00  0.000000E+00  0.000000E+00  0.000000E+00  0.000000E+00  0.000000E+00  0.000000E+00  0.000000E+00  7.437877E-01 -2.262080E-11  1.094560E-11  7.437877E-01                                                                                                                                                                                                                                                                                                                                                                                                                                                                                              
  3.750000E+02  1.250000E+02 -5.225000E+03  6.658297E-07  4.832498E-17 -3.030012E-17  6.658297E-07  3.654441E-09  2.652929E-19 -1.663406E-19  3.654441E-09  0.000000E+00  0.000000E+00  0.000000E+00  0.000000E+00  0.000000E+00  0.000000E+00  0.000000E+00  0.000000E+00  7.437877E-01  4.044383E-11 -2.629578E-11  7.437877E-01                                                                                                                                                                                                                                                                                                                                                                                                                                                                                              
  6.250000E+02  1.250000E+02 -5.225000E+03  6.658297E-07 -4.347308E-16 -1.940054E-19  6.658297E-07  3.654442E-09 -2.386571E-18 -1.065044E-21  3.654442E-09  0.000000E+00  0.000000E+00  0.000000E+00  0.000000E+00  0.000000E+00  0.000000E+00  0.000000E+00  0.000000E+00  7.437877E-01 -3.625702E-10 -1.632171E-13  7.437877E-01                                                                                                                                                                                                                                                                                                                                                                                                                                                                                              
  8.750000E+02  1.250000E+02 -5.225000E+03  6.658298E-07 -7.925682E-14 -7.008004E-17  6.658298E-07  3.654442E-09 -4.351015E-16 -3.847231E-19  3.654442E-09  0.000000E+00  0.000000E+00  0.000000E+00  0.000000E+00  0.000000E+00  0.000000E+00  0.000000E+00  0.000000E+00  7.437878E-01 -6.649456E-08 -6.075830E-11  7.437878E-01                                                                                                                                                                                                                                                                                                                                                                                                                                                                                              
  1.050000E+03  1.250000E+02 -5.225000E+03  6.658425E-07 -8.940625E-17  1.286608E-17  6.658425E-07  3.654512E-09 -4.908195E-19  7.063181E-20  3.654512E-09  0.000000E+00  0.000000E+00  0.000000E+00  0.000000E+00  0.000000E+00  0.000000E+00  0.000000E+00  0.000000E+00  7.437993E-01 -7.783320E-11  1.122881E-11  7.437993E-01                                                                                                                                                                                                                                                                                                                                                                                                                                                                                              
  1.225000E+03  1.250000E+02 -5.225000E+03  6.658298E-07  7.922937E-14 -3.015902E-18  6.658298E-07  3.654442E-09  4.349508E-16 -1.655660E-20  3.654442E-09  0.000000E+00  0.000000E+00  0.000000E+00  0.000000E+00  0.000000E+00  0.000000E+00  0.000000E+00  0.000000E+00  7.437878E-01  6.647067E-08 -2.526174E-12  7.437878E-01                                                                                                                                                                                                                                                                                                                                                                                                                                                                                              
  1.475000E+03  1.250000E+02 -5.225000E+03  6.658297E-07  4.399601E-16 -1.807778E-18  6.658297E-07  3.654442E-09  2.415279E-18 -9.924277E-21  3.654442E-09  0.000000E+00  0.000000E+00  0.000000E+00  0.000000E+00  0.000000E+00  0.000000E+00  0.000000E+00  0.000000E+00  7.437877E-01  3.671888E-10 -1.512180E-12  7.437877E-01                                                                                                                                                                                                                                                                                                                                                                                                                                                                                              
  1.725000E+03  1.250000E+02 -5.225000E+03  6.658297E-07 -3.421550E-17  2.627891E-18  6.658297E-07  3.654441E-09 -1.878351E-19  1.442651E-20  3.654441E-09  0.000000E+00  0.000000E+00  0.000000E+00  0.000000E+00  0.000000E+00  0.000000E+00  0.000000E+00  0.000000E+00  7.437877E-01 -2.816662E-11  2.220772E-12  7.437877E-01                                                                                                                                                                                                                                                                                                                                                                                                                                                                                              
  1.975000E+03  1.250000E+02 -5.225000E+03  6.658297E-07  9.596212E-17  1.587317E-18  6.658297E-07  3.654441E-09  5.268097E-19  8.714000E-21  3.654441E-09  0.000000E+00  0.000000E+00  0.000000E+00  0.000000E+00  0.000000E+00  0.000000E+00  0.000000E+00  0.000000E+00  7.437877E-01  8.422551E-11  1.538241E-12  7.437877E-01                                                                                                                                                                                                                                                                                                                                                                                                                                                                                              
  1.250000E+02  1.250000E+02 -4.975000E+03  6.463721E-07  3.334007E-15 -6.451812E-17  6.463721E-07  3.522252E-09  1.816689E-17 -3.515569E-19  3.522252E-09  0.000000E+00  0.000000E+00  0.000000E+00  0.000000E+00  0.000000E+00  0.000000E+00  0.000000E+00  0.000000E+00  7.044530E-01  2.668259E-09 -5.316972E-11  7.044530E-01                                                                                                                                                                                                                                                                                                                                                                                                                                                                                              
  3.750000E+02  1.250000E+02 -4.975000E+03  6.463727E-07  9.935893E-15 -1.774547E-17  6.463727E-07  3.522255E-09  5.414032E-17 -9.669441E-20  3.522255E-09  0.000000E+00  0.000000E+00  0.000000E+00  0.000000E+00  0.000000E+00  0.000000E+00  0.000000E+00  0.000000E+00  7.044535E-01  7.950104E-09 -1.428593E-11  7.044535E-01                                                                                                                                                                                                                                                                                                                                                                                                                                                                                              
  6.250000E+02  1.250000E+02 -4.975000E+03  6.463737E-07  1.663798E-14  1.434304E-17  6.463737E-07  3.522260E-09  9.065977E-17  7.815473E-20  3.522260E-09  0.000000E+00  0.000000E+00  0.000000E+00  0.000000E+00  0.000000E+00  0.000000E+00  0.000000E+00  0.000000E+00  7.044543E-01  1.331578E-08  1.152657E-11  7.044543E-01                                                                                                                                                                                                                                                                                                                                                                                                                                                                                              
  8.750000E+02  1.250000E+02 -4.975000E+03  6.463754E-07  2.238252E-14  2.796979E-18  6.463754E-07  3.522269E-09  1.219615E-16  1.524064E-20  3.522269E-09  0.000000E+00  0.000000E+00  0.000000E+00  0.000000E+00  0.000000E+00  0.000000E+00  0.000000E+00  0.000000E+00  7.044556E-01  1.791648E-08  2.489091E-12  7.044556E-01                                                                                                                                                                                                                                                                                                                                                                                                                                                                                              
  1.050000E+03  1.250000E+02 -4.975000E+03  6.463769E-07 -6.896210E-17 -2.589764E-17  6.463769E-07  3.522277E-09 -3.757720E-19 -1.411153E-19  3.522277E-09  0.000000E+00  0.000000E+00  0.000000E+00  0.000000E+00  0.000000E+00  0.000000E+00  0.000000E+00  0.000000E+00  7.044568E-01 -5.791776E-11 -2.127800E-11  7.044568E-01                                                                                                                                                                                                                                                                                                                                                                                                                                                                                              
  1.225000E+03  1.250000E+02 -4.975000E+03  6.463754E-07 -2.237767E-14  6.373360E-17  6.463754E-07  3.522269E-09 -1.219351E-16  3.472821E-19  3.522269E-09  0.000000E+00  0.000000E+00  0.000000E+00  0.000000E+00  0.000000E+00  0.000000E+00  0.000000E+00  0.000000E+00  7.044556E-01 -1.791272E-08  5.285540E-11  7.044556E-01                                                                                                                                                                                                                                                                                                                                                                                                                                                                                              
  1.475000E+03  1.250000E+02 -4.975000E+03  6.463737E-07 -1.653852E-14  2.361230E-17  6.463737E-07  3.522260E-09 -9.011780E-17  1.286626E-19  3.522260E-09  0.000000E+00  0.000000E+00  0.000000E+00  0.000000E+00  0.000000E+00  0.000000E+00  0.000000E+00  0.000000E+00  7.044543E-01 -1.323245E-08  1.982174E-11  7.044543E-01                                                                                                                                                                                                                                                                                                                                                                                                                                                                                              
  1.725000E+03  1.250000E+02 -4.975000E+03  6.463727E-07 -1.002963E-14 -3.941353E-17  6.463727E-07  3.522255E-09 -5.465107E-17 -2.147629E-19  3.522255E-09  0.000000E+00  0.000000E+00  0.000000E+00  0.000000E+00  0.000000E+00  0.000000E+00  0.000000E+00  0.000000E+00  7.044535E-01 -8.027899E-09 -3.260309E-11  7.044535E-01                                                                                                                                                                                                                                                                                                                                                                                                                                                                                              
  1.975000E+03  1.250000E+02 -4.975000E+03  6.463721E-07 -3.453391E-15 -5.955519E-17  6.463721E-07  3.522252E-09 -1.881740E-17 -3.245141E-19  3.522252E-09  0.000000E+00  0.000000E+00  0.000000E+00  0.000000E+00  0.000000E+00  0.000000E+00  0.000000E+00  0.000000E+00  7.044530E-01 -2.767700E-09 -4.961147E-11  7.044530E-01                                                                                                                                                                                                                                                                                                                                                                                                                                                                                              
  1.250000E+02  1.250000E+02 -4.725000E+03  5.497790E-06  5.202914E-13 -3.561559E-15  5.497790E-06  2.969652E-08  2.814835E-15 -1.926843E-17  2.969652E-08  0.000000E+00  0.000000E+00  0.000000E+00  0.000000E+00  0.000000E+00  0.000000E+00  0.000000E+00  0.000000E+00  4.375021E+00  3.963323E-07 -2.944746E-09  4.375021E+00                                                                                                                                                                                                                                                                                                                                                                                                                                                                                              
  3.750000E+02  1.250000E+02 -4.725000E+03  5.497798E-06  1.554061E-12 -4.313034E-15  5.497798E-06  2.969657E-08  8.407641E-15 -2.333399E-17  2.969657E-08  0.000000E+00  0.000000E+00  0.000000E+00  0.000000E+00  0.000000E+00  0.000000E+00  0.000000E+00  0.000000E+00  4.375028E+00  1.183845E-06 -3.425771E-09  4.375028E+00                                                                                                                                                                                                                                                                                                                                                                                                                                                                                              
  6.250000E+02  1.250000E+02 -4.725000E+03  5.497816E-06  2.587545E-12  1.936932E-15  5.497816E-06  2.969667E-08  1.399891E-14  1.047902E-17  2.969667E-08  0.000000E+00  0.000000E+00  0.000000E+00  0.000000E+00  0.000000E+00  0.000000E+00  0.000000E+00  0.000000E+00  4.375042E+00  1.971194E-06  1.518056E-09  4.375042E+00                                                                                                                                                                                                                                                                                                                                                                                                                                                                                              
  8.750000E+02  1.250000E+02 -4.725000E+03  5.497843E-06  3.539339E-12 -6.797656E-16  5.497843E-06  2.969681E-08  1.914822E-14 -3.677608E-18  2.969681E-08  0.000000E+00  0.000000E+00  0.000000E+00  0.000000E+00  0.000000E+00  0.000000E+00  0.000000E+00  0.000000E+00  4.375062E+00  2.696421E-06 -5.895720E-10  4.375062E+00                                                                                                                                                                                                                                                                                                                                                                                                                                                                                              
  1.050000E+03  1.250000E+02 -4.725000E+03  5.497867E-06  2.347619E-15 -2.199653E-15  5.497867E-06  2.969695E-08  1.270088E-17 -1.190037E-17  2.969695E-08  0.000000E+00  0.000000E+00  0.000000E+00  0.000000E+00  0.000000E+00  0.000000E+00  0.000000E+00  0.000000E+00  4.375075E+00  1.789031E-09 -1.725918E-09  4.375075E+00                                                                                                                                                                                                                                                                                                                                                                                                                                                                                              
  1.225000E+03  1.250000E+02 -4.725000E+03  5.497843E-06 -3.537498E-12  2.826654E-15  5.497843E-06  2.969681E-08 -1.913826E-14  1.529251E-17  2.969681E-08  0.000000E+00  0.000000E+00  0.000000E+00  0.000000E+00  0.000000E+00  0.000000E+00  0.000000E+00  0.000000E+00  4.375062E+00 -2.694960E-06  2.265917E-09  4.375062E+00                                                                                                                                                                                                                                                                                                                                                                                                                                                                                              
  1.475000E+03  1.250000E+02 -4.725000E+03  5.497816E-06 -2.589001E-12 -1.730017E-15  5.497816E-06  2.969667E-08 -1.400679E-14 -9.359583E-18  2.969667E-08  0.000000E+00  0.000000E+00  0.000000E+00  0.000000E+00  0.000000E+00  0.000000E+00  0.000000E+00  0.000000E+00  4.375042E+00 -1.972292E-06 -1.437941E-09  4.375042E+00                                                                                                                                                                                                                                                                                                                                                                                                                                                                                              
  1.725000E+03  1.250000E+02 -4.725000E+03  5.497798E-06 -1.555691E-12 -1.061963E-15  5.497798E-06  2.969657E-08 -8.416460E-15 -5.745337E-18  2.969657E-08  0.000000E+00  0.000000E+00  0.000000E+00  0.000000E+00  0.000000E+00  0.000000E+00  0.000000E+00  0.000000E+00  4.375028E+00 -1.185239E-06 -8.105317E-10  4.375028E+00                                                                                                                                                                                                                                                                                                                                                                                                                                                                                              