Title="TOUGHREACT V3.30-OMP flowdata.tec: P,T,SAT & Other Variables"                                                                                                                                                                                                                                                                                                                                                                                                                                                                                                                                                                                                                                                                                                                                                            
Variables= "X(m)"     "Y(m)"      "Z(m)"       "P(Pa)"        "T(C)"      "SatGas"      "SatLiq"          "X1"          "X2"    "Pcap(Pa)"  "DGas_kg/m3"  "DLiq_kg/m3"    "Porosity"  "Perm_X(m2)"  "Perm_Y(m2)"  "Perm_Z(m2)"    "Krel_Gas"    "Krel_Liq"                                                                                                                                                                                                                                                                                                                                                                                                                                                                                                                                                                      
Zone T= "5.18400000E+05 sec" I=     9 J=     9 K=     5 F=Point
  5.000000E+00  5.000000E+00 -5.050000E+01  1.393923E+06  2.999294E+01  0.000000E+00  1.000000E+00  1.000000E+00  0.000000E+00  0.000000E+00  3.035685E-02  9.963282E+02  1.999995E-01  1.100000E-17  1.100000E-17  1.100000E-17  0.000000E+00  1.000000E+00                                                                                                                                                                                                                                                                                                                                                                                                                                                                                                                                                                    
  1.500000E+01  5.000000E+00 -5.050000E+01  1.393923E+06  2.999294E+01  0.000000E+00  1.000000E+00  1.000000E+00  0.000000E+00  0.000000E+00  3.035685E-02  9.963282E+02  1.999995E-01  1.100000E-17  1.100000E-17  1.100000E-17  0.000000E+00  1.000000E+00                                                                                                                                                                                                                                                                                                                                                                                                                                                                                                                                                                    
  2.500000E+01  5.000000E+00 -5.050000E+01  1.393923E+06  2.999294E+01  0.000000E+00  1.000000E+00  1.000000E+00  0.000000E+00  0.000000E+00  3.035685E-02  9.963282E+02  1.999995E-01  1.100000E-17  1.100000E-17  1.100000E-17  0.000000E+00  1.000000E+00                                                                                                                                                                                                                                                                                                                                                                                                                                                                                                                                                                    
  3.500000E+01  5.000000E+00 -5.050000E+01  1.393923E+06  2.999294E+01  0.000000E+00  1.000000E+00  1.000000E+00  0.000000E+00  0.000000E+00  3.035685E-02  9.963282E+02  1.999995E-01  1.100000E-17  1.100000E-17  1.100000E-17  0.000000E+00  1.000000E+00                                                                                                                                                                                                                                                                                                                                                                                                                                                                                                                                                                    
  4.500000E+01  5.000000E+00 -5.050000E+01  1.393923E+06  2.999294E+01  0.000000E+00  1.000000E+00  1.000000E+00  0.000000E+00  0.000000E+00  3.035685E-02  9.963282E+02  1.999995E-01  1.100000E-17  1.100000E-17  1.100000E-17  0.000000E+00  1.000000E+00                                                                                                                                                                                                                                                                                                                                                                                                                                                                                                                                                                    
  5.500000E+01  5.000000E+00 -5.050000E+01  1.393923E+06  2.999294E+01  0.000000E+00  1.000000E+00  1.000000E+00  0.000000E+00  0.000000E+00  3.035685E-02  9.963282E+02  1.999995E-01  1.100000E-17  1.100000E-17  1.100000E-17  0.000000E+00  1.000000E+00                                                                                                                                                                                                                                                                                                                                                                                                                                                                                                                                                                    
  6.500000E+01  5.000000E+00 -5.050000E+01  1.393923E+06  2.999294E+01  0.000000E+00  1.000000E+00  1.000000E+00  0.000000E+00  0.000000E+00  3.035685E-02  9.963282E+02  1.999995E-01  1.100000E-17  1.100000E-17  1.100000E-17  0.000000E+00  1.000000E+00                                                                                                                                                                                                                                                                                                                                                                                                                                                                                                                                                                    
  7.500000E+01  5.000000E+00 -5.050000E+01  1.393923E+06  2.999294E+01  0.000000E+00  1.000000E+00  1.000000E+00  0.000000E+00  0.000000E+00  3.035685E-02  9.963282E+02  1.999995E-01  1.100000E-17  1.100000E-17  1.100000E-17  0.000000E+00  1.000000E+00                                                                                                                                                                                                                                                                                                                                                                                                                                                                                                                                                                    
  8.500000E+01  5.000000E+00 -5.050000E+01  1.393923E+06  2.999294E+01  0.000000E+00  1.000000E+00  1.000000E+00  0.000000E+00  0.000000E+00  3.035685E-02  9.963282E+02  1.999995E-01  1.100000E-17  1.100000E-17  1.100000E-17  0.000000E+00  1.000000E+00                                                                                                                                                                                                                                                                                                                                                                                                                                                                                                                                                                    
  5.000000E+00  5.000000E+00 -4.550000E+01  1.339162E+06  2.996760E+01  0.000000E+00  1.000000E+00  1.000000E+00  0.000000E+00  0.000000E+00  3.031520E-02  9.963117E+02  1.999965E-01  1.100000E-13  1.100000E-13  1.100000E-15  0.000000E+00  1.000000E+00                                                                                                                                                                                                                                                                                                                                                                                                                                                                                                                                                                    
  1.500000E+01  5.000000E+00 -4.550000E+01  1.339162E+06  2.996760E+01  0.000000E+00  1.000000E+00  1.000000E+00  0.000000E+00  0.000000E+00  3.031520E-02  9.963117E+02  1.999965E-01  1.100000E-13  1.100000E-13  1.100000E-15  0.000000E+00  1.000000E+00                                                                                                                                                                                                                                                                                                                                                                                                                                                                                                                                                                    
  2.500000E+01  5.000000E+00 -4.550000E+01  1.339162E+06  2.996760E+01  0.000000E+00  1.000000E+00  1.000000E+00  0.000000E+00  0.000000E+00  3.031520E-02  9.963117E+02  1.999965E-01  1.100000E-13  1.100000E-13  1.100000E-15  0.000000E+00  1.000000E+00                                                                                                                                                                                                                                                                                                                                                                                                                                                                                                                                                                    
  3.500000E+01  5.000000E+00 -4.550000E+01  1.339162E+06  2.996760E+01  0.000000E+00  1.000000E+00  1.000000E+00  0.000000E+00  0.000000E+00  3.031520E-02  9.963117E+02  1.999965E-01  1.100000E-13  1.100000E-13  1.100000E-15  0.000000E+00  1.000000E+00                                                                                                                                                                                                                                                                                                                                                                                                                                                                                                                                                                    
  4.500000E+01  5.000000E+00 -4.550000E+01  1.339162E+06  2.996760E+01  0.000000E+00  1.000000E+00  1.000000E+00  0.000000E+00  0.000000E+00  3.031520E-02  9.963117E+02  1.999965E-01  1.100000E-13  1.100000E-13  1.100000E-15  0.000000E+00  1.000000E+00                                                                                                                                                                                                                                                                                                                                                                                                                                                                                                                                                                    
  5.500000E+01  5.000000E+00 -4.550000E+01  1.339162E+06  2.996760E+01  0.000000E+00  1.000000E+00  1.000000E+00  0.000000E+00  0.000000E+00  3.031520E-02  9.963117E+02  1.999965E-01  1.100000E-13  1.100000E-13  1.100000E-15  0.000000E+00  1.000000E+00                                                                                                                                                                                                                                                                                                                                                                                                                                                                                                                                                                    
  6.500000E+01  5.000000E+00 -4.550000E+01  1.339162E+06  2.996760E+01  0.000000E+00  1.000000E+00  1.000000E+00  0.000000E+00  0.000000E+00  3.031520E-02  9.963117E+02  1.999965E-01  1.100000E-13  1.100000E-13  1.100000E-15  0.000000E+00  1.000000E+00                                                                                                                                                                                                                                                                                                                                                                                                                                                                                                                                                                    
  7.500000E+01  5.000000E+00 -4.550000E+01  1.339162E+06  2.996760E+01  0.000000E+00  1.000000E+00  1.000000E+00  0.000000E+00  0.000000E+00  3.031520E-02  9.963117E+02  1.999965E-01  1.100000E-13  1.100000E-13  1.100000E-15  0.000000E+00  1.000000E+00                                                                                                                                                                                                                                                                                                                                                                                                                                                                                                                                                                    
  8.500000E+01  5.000000E+00 -4.550000E+01  1.339162E+06  2.996760E+01  0.000000E+00  1.000000E+00  1.000000E+00  0.000000E+00  0.000000E+00  3.031520E-02  9.963117E+02  1.999965E-01  1.100000E-13  1.100000E-13  1.100000E-15  0.000000E+00  1.000000E+00                                                                                                                                                                                                                                                                                                                                                                                                                                                                                                                                                                    
  5.000000E+00  5.000000E+00 -3.000000E+01  1.187820E+06  2.991250E+01  0.000000E+00  1.000000E+00  1.000000E+00  0.000000E+00  0.000000E+00  3.022481E-02  9.962614E+02  9.999966E-02  1.100000E-12  1.100000E-12  1.100000E-12  0.000000E+00  1.000000E+00                                                                                                                                                                                                                                                                                                                                                                                                                                                                                                                                                                    
  1.500000E+01  5.000000E+00 -3.000000E+01  1.187820E+06  2.991250E+01  0.000000E+00  1.000000E+00  1.000000E+00  0.000000E+00  0.000000E+00  3.022481E-02  9.962614E+02  9.999966E-02  1.100000E-12  1.100000E-12  1.100000E-12  0.000000E+00  1.000000E+00                                                                                                                                                                                                                                                                                                                                                                                                                                                                                                                                                                    
  2.500000E+01  5.000000E+00 -3.000000E+01  1.187820E+06  2.991250E+01  0.000000E+00  1.000000E+00  1.000000E+00  0.000000E+00  0.000000E+00  3.022481E-02  9.962614E+02  9.999966E-02  1.100000E-12  1.100000E-12  1.100000E-12  0.000000E+00  1.000000E+00                                                                                                                                                                                                                                                                                                                                                                                                                                                                                                                                                                    
  3.500000E+01  5.000000E+00 -3.000000E+01  1.187820E+06  2.991250E+01  0.000000E+00  1.000000E+00  1.000000E+00  0.000000E+00  0.000000E+00  3.022481E-02  9.962614E+02  9.999966E-02  1.100000E-12  1.100000E-12  1.100000E-12  0.000000E+00  1.000000E+00                                                                                                                                                                                                                                                                                                                                                                                                                                                                                                                                                                    
  4.500000E+01  5.000000E+00 -3.000000E+01  1.187820E+06  2.991250E+01  0.000000E+00  1.000000E+00  1.000000E+00  0.000000E+00  0.000000E+00  3.022481E-02  9.962614E+02  9.999966E-02  1.100000E-12  1.100000E-12  1.100000E-12  0.000000E+00  1.000000E+00                                                                                                                                                                                                                                                                                                                                                                                                                                                                                                                                                                    
  5.500000E+01  5.000000E+00 -3.000000E+01  1.187820E+06  2.991250E+01  0.000000E+00  1.000000E+00  1.000000E+00  0.000000E+00  0.000000E+00  3.022481E-02  9.962614E+02  9.999966E-02  1.100000E-12  1.100000E-12  1.100000E-12  0.000000E+00  1.000000E+00                                                                                                                                                                                                                                                                                                                                                                                                                                                                                                                                                                    
  6.500000E+01  5.000000E+00 -3.000000E+01  1.187820E+06  2.991250E+01  0.000000E+00  1.000000E+00  1.000000E+00  0.000000E+00  0.000000E+00  3.022481E-02  9.962614E+02  9.999966E-02  1.100000E-12  1.100000E-12  1.100000E-12  0.000000E+00  1.000000E+00                                                                                                                                                                                                                                                                                                                                                                                                                                                                                                                                                                    
  7.500000E+01  5.000000E+00 -3.000000E+01  1.187820E+06  2.991250E+01  0.000000E+00  1.000000E+00  1.000000E+00  0.000000E+00  0.000000E+00  3.022481E-02  9.962614E+02  9.999966E-02  1.100000E-12  1.100000E-12  1.100000E-12  0.000000E+00  1.000000E+00                                                                                                                                                                                                                                                                                                                                                                                                                                                                                                                                                                    
  8.500000E+01  5.000000E+00 -3.000000E+01  1.187820E+06  2.991250E+01  0.000000E+00  1.000000E+00  1.000000E+00  0.000000E+00  0.000000E+00  3.022481E-02  9.962614E+02  9.999966E-02  1.100000E-12  1.100000E-12  1.100000E-12  0.000000E+00  1.000000E+00                                                                                                                                                                                                                                                                                                                                                                                                                                                                                                                                                                    
  5.000000E+00  5.000000E+00 -1.000000E+01  9.925587E+05  2.984252E+01  0.000000E+00  1.000000E+00  1.000000E+00  0.000000E+00  0.000000E+00  3.011035E-02  9.961962E+02  1.000015E-01  1.100000E-12  1.100000E-12  1.100000E-12  0.000000E+00  1.000000E+00                                                                                                                                                                                                                                                                                                                                                                                                                                                                                                                                                                    
  1.500000E+01  5.000000E+00 -1.000000E+01  9.925587E+05  2.984252E+01  0.000000E+00  1.000000E+00  1.000000E+00  0.000000E+00  0.000000E+00  3.011035E-02  9.961962E+02  1.000015E-01  1.100000E-12  1.100000E-12  1.100000E-12  0.000000E+00  1.000000E+00                                                                                                                                                                                                                                                                                                                                                                                                                                                                                                                                                                    
  2.500000E+01  5.000000E+00 -1.000000E+01  9.925587E+05  2.984252E+01  0.000000E+00  1.000000E+00  1.000000E+00  0.000000E+00  0.000000E+00  3.011035E-02  9.961962E+02  1.000015E-01  1.100000E-12  1.100000E-12  1.100000E-12  0.000000E+00  1.000000E+00                                                                                                                                                                                                                                                                                                                                                                                                                                                                                                                                                                    
  3.500000E+01  5.000000E+00 -1.000000E+01  9.925587E+05  2.984252E+01  0.000000E+00  1.000000E+00  1.000000E+00  0.000000E+00  0.000000E+00  3.011035E-02  9.961962E+02  1.000015E-01  1.100000E-12  1.100000E-12  1.100000E-12  0.000000E+00  1.000000E+00                                                                                                                                                                                                                                                                                                                                                                                                                                                                                                                                                                    
  4.500000E+01  5.000000E+00 -1.000000E+01  9.925587E+05  2.984252E+01  0.000000E+00  1.000000E+00  1.000000E+00  0.000000E+00  0.000000E+00  3.011035E-02  9.961962E+02  1.000015E-01  1.100000E-12  1.100000E-12  1.100000E-12  0.000000E+00  1.000000E+00                                                                                                                                                                                                                                                                                                                                                                                                                                                                                                                                                                    
  5.500000E+01  5.000000E+00 -1.000000E+01  9.925587E+05  2.984252E+01  0.000000E+00  1.000000E+00  1.000000E+00  0.000000E+00  0.000000E+00  3.011035E-02  9.961962E+02  1.000015E-01  1.100000E-12  1.100000E-12  1.100000E-12  0.000000E+00  1.000000E+00                                                                                                                                                                                                                                                                                                                                                                                                                                                                                                                                                                    
  6.500000E+01  5.000000E+00 -1.000000E+01  9.925587E+05  2.984252E+01  0.000000E+00  1.000000E+00  1.000000E+00  0.000000E+00  0.000000E+00  3.011035E-02  9.961962E+02  1.000015E-01  1.100000E-12  1.100000E-12  1.100000E-12  0.000000E+00  1.000000E+00                                                                                                                                                                                                                                                                                                                                                                                                                                                                                                                                                                    
  7.500000E+01  5.000000E+00 -1.000000E+01  9.925587E+05  2.984252E+01  0.000000E+00  1.000000E+00  1.000000E+00  0.000000E+00  0.000000E+00  3.011035E-02  9.961962E+02  1.000015E-01  1.100000E-12  1.100000E-12  1.100000E-12  0.000000E+00  1.000000E+00                                                                                                                                                                                                                                                                                                                                                                                                                                                                                                                                                                    