Title="TOUGHREACT V3.30-OMP flowdata.tec: P,T,SAT & Other Variables"                                                                                                                                                                                                                                                                                                                                                                                                                                                                                                                                                                                                                                                                                                                                                            
Variables= "X(m)"     "Y(m)"      "Z(m)"       "P(Pa)"        "T(C)"      "SatGas"      "SatLiq"          "X1"          "X2"    "Pcap(Pa)"  "DGas_kg/m3"  "DLiq_kg/m3"    "Porosity"  "Perm_X(m2)"  "Perm_Y(m2)"  "Perm_Z(m2)"    "Krel_Gas"    "Krel_Liq"                                                                                                                                                                                                                                                                                                                                                                                                                                                                                                                                                                      
Zone T= "1.00000000E+09 sec" I=     9 J=    10 K=    23 F=Point
  1.250000E+02  1.250000E+02 -5.425000E+03  5.872958E+07  1.776568E+02  0.000000E+00  1.000000E+00  1.000000E+00  0.000000E+00  0.000000E+00  4.899967E+00  9.233322E+02  1.996688E-01  1.100000E-17  1.100000E-17  1.100000E-17  0.000000E+00  1.000000E+00                                                                                                                                                                                                                                                                                                                                                                                                                                                                                                                                                                    
  3.750000E+02  1.250000E+02 -5.425000E+03  5.856347E+07  1.776487E+02  0.000000E+00  1.000000E+00  1.000000E+00  0.000000E+00  0.000000E+00  4.899086E+00  9.232535E+02  1.995626E-01  1.100000E-17  1.100000E-17  1.100000E-17  0.000000E+00  1.000000E+00                                                                                                                                                                                                                                                                                                                                                                                                                                                                                                                                                                    
  6.250000E+02  1.250000E+02 -5.425000E+03  5.815298E+07  1.775763E+02  0.000000E+00  1.000000E+00  1.000000E+00  0.000000E+00  0.000000E+00  4.891227E+00  9.231061E+02  1.993002E-01  1.100000E-17  1.100000E-17  1.100000E-17  0.000000E+00  1.000000E+00                                                                                                                                                                                                                                                                                                                                                                                                                                                                                                                                                                    
  8.750000E+02  1.250000E+02 -5.425000E+03  5.750498E+07  1.732827E+02  0.000000E+00  1.000000E+00  1.000000E+00  0.000000E+00  0.000000E+00  4.442851E+00  9.266243E+02  1.988617E-01  1.100000E-17  1.100000E-17  1.100000E-17  0.000000E+00  1.000000E+00                                                                                                                                                                                                                                                                                                                                                                                                                                                                                                                                                                    
  1.050000E+03  1.250000E+02 -5.425000E+03  5.776371E+07  5.286131E+01  0.000000E+00  1.000000E+00  1.000000E+00  0.000000E+00  0.000000E+00  9.474463E-02  1.010399E+03  2.974624E-01  1.100000E-10  1.100000E-10  1.100000E-10  0.000000E+00  1.000000E+00                                                                                                                                                                                                                                                                                                                                                                                                                                                                                                                                                                    
  1.225000E+03  1.250000E+02 -5.425000E+03  5.750498E+07  1.732827E+02  0.000000E+00  1.000000E+00  1.000000E+00  0.000000E+00  0.000000E+00  4.442851E+00  9.266243E+02  1.988617E-01  1.100000E-17  1.100000E-17  1.100000E-17  0.000000E+00  1.000000E+00                                                                                                                                                                                                                                                                                                                                                                                                                                                                                                                                                                    
  1.475000E+03  1.250000E+02 -5.425000E+03  5.815298E+07  1.775763E+02  0.000000E+00  1.000000E+00  1.000000E+00  0.000000E+00  0.000000E+00  4.891227E+00  9.231061E+02  1.993002E-01  1.100000E-17  1.100000E-17  1.100000E-17  0.000000E+00  1.000000E+00                                                                                                                                                                                                                                                                                                                                                                                                                                                                                                                                                                    
  1.725000E+03  1.250000E+02 -5.425000E+03  5.856347E+07  1.776487E+02  0.000000E+00  1.000000E+00  1.000000E+00  0.000000E+00  0.000000E+00  4.899086E+00  9.232535E+02  1.995626E-01  1.100000E-17  1.100000E-17  1.100000E-17  0.000000E+00  1.000000E+00                                                                                                                                                                                                                                                                                                                                                                                                                                                                                                                                                                    
  1.975000E+03  1.250000E+02 -5.425000E+03  5.872958E+07  1.776568E+02  0.000000E+00  1.000000E+00  1.000000E+00  0.000000E+00  0.000000E+00  4.899967E+00  9.233322E+02  1.996688E-01  1.100000E-17  1.100000E-17  1.100000E-17  0.000000E+00  1.000000E+00                                                                                                                                                                                                                                                                                                                                                                                                                                                                                                                                                                    
  1.250000E+02  1.250000E+02 -5.225000E+03  5.678310E+07  1.717300E+02  0.000000E+00  1.000000E+00  1.000000E+00  0.000000E+00  0.000000E+00  4.289070E+00  9.276368E+02  1.997092E-01  1.100000E-17  1.100000E-17  1.100000E-17  0.000000E+00  1.000000E+00                                                                                                                                                                                                                                                                                                                                                                                                                                                                                                                                                                    
  3.750000E+02  1.250000E+02 -5.225000E+03  5.662767E+07  1.717225E+02  0.000000E+00  1.000000E+00  1.000000E+00  0.000000E+00  0.000000E+00  4.288346E+00  9.275642E+02  1.996098E-01  1.100000E-17  1.100000E-17  1.100000E-17  0.000000E+00  1.000000E+00                                                                                                                                                                                                                                                                                                                                                                                                                                                                                                                                                                    
  6.250000E+02  1.250000E+02 -5.225000E+03  5.623789E+07  1.716544E+02  0.000000E+00  1.000000E+00  1.000000E+00  0.000000E+00  0.000000E+00  4.281694E+00  9.274260E+02  1.993606E-01  1.100000E-17  1.100000E-17  1.100000E-17  0.000000E+00  1.000000E+00                                                                                                                                                                                                                                                                                                                                                                                                                                                                                                                                                                    
  8.750000E+02  1.250000E+02 -5.225000E+03  5.560643E+07  1.675780E+02  0.000000E+00  1.000000E+00  1.000000E+00  0.000000E+00  0.000000E+00  3.898743E+00  9.307038E+02  1.989338E-01  1.100000E-17  1.100000E-17  1.100000E-17  0.000000E+00  1.000000E+00                                                                                                                                                                                                                                                                                                                                                                                                                                                                                                                                                                    
  1.050000E+03  1.250000E+02 -5.225000E+03  5.578238E+07  5.239937E+01  0.000000E+00  1.000000E+00  1.000000E+00  0.000000E+00  0.000000E+00  9.276191E-02  1.009851E+03  2.975382E-01  1.100000E-10  1.100000E-10  1.100000E-10  0.000000E+00  1.000000E+00                                                                                                                                                                                                                                                                                                                                                                                                                                                                                                                                                                    
  1.225000E+03  1.250000E+02 -5.225000E+03  5.560643E+07  1.675780E+02  0.000000E+00  1.000000E+00  1.000000E+00  0.000000E+00  0.000000E+00  3.898743E+00  9.307038E+02  1.989338E-01  1.100000E-17  1.100000E-17  1.100000E-17  0.000000E+00  1.000000E+00                                                                                                                                                                                                                                                                                                                                                                                                                                                                                                                                                                    
  1.475000E+03  1.250000E+02 -5.225000E+03  5.623789E+07  1.716544E+02  0.000000E+00  1.000000E+00  1.000000E+00  0.000000E+00  0.000000E+00  4.281694E+00  9.274260E+02  1.993606E-01  1.100000E-17  1.100000E-17  1.100000E-17  0.000000E+00  1.000000E+00                                                                                                                                                                                                                                                                                                                                                                                                                                                                                                                                                                    
  1.725000E+03  1.250000E+02 -5.225000E+03  5.662767E+07  1.717225E+02  0.000000E+00  1.000000E+00  1.000000E+00  0.000000E+00  0.000000E+00  4.288346E+00  9.275642E+02  1.996098E-01  1.100000E-17  1.100000E-17  1.100000E-17  0.000000E+00  1.000000E+00                                                                                                                                                                                                                                                                                                                                                                                                                                                                                                                                                                    
  1.975000E+03  1.250000E+02 -5.225000E+03  5.678310E+07  1.717300E+02  0.000000E+00  1.000000E+00  1.000000E+00  0.000000E+00  0.000000E+00  4.289070E+00  9.276368E+02  1.997092E-01  1.100000E-17  1.100000E-17  1.100000E-17  0.000000E+00  1.000000E+00                                                                                                                                                                                                                                                                                                                                                                                                                                                                                                                                                                    
  1.250000E+02  1.250000E+02 -4.975000E+03  5.402534E+07  1.642248E+02  0.000000E+00  1.000000E+00  1.000000E+00  0.000000E+00  0.000000E+00  3.604760E+00  9.328379E+02  1.995517E-01  1.100000E-17  1.100000E-17  1.100000E-17  0.000000E+00  1.000000E+00                                                                                                                                                                                                                                                                                                                                                                                                                                                                                                                                                                    
  3.750000E+02  1.250000E+02 -4.975000E+03  5.390990E+07  1.642191E+02  0.000000E+00  1.000000E+00  1.000000E+00  0.000000E+00  0.000000E+00  3.604272E+00  9.327852E+02  1.994779E-01  1.100000E-17  1.100000E-17  1.100000E-17  0.000000E+00  1.000000E+00                                                                                                                                                                                                                                                                                                                                                                                                                                                                                                                                                                    
  6.250000E+02  1.250000E+02 -4.975000E+03  5.360801E+07  1.641579E+02  0.000000E+00  1.000000E+00  1.000000E+00  0.000000E+00  0.000000E+00  3.599082E+00  9.326873E+02  1.992850E-01  1.100000E-17  1.100000E-17  1.100000E-17  0.000000E+00  1.000000E+00                                                                                                                                                                                                                                                                                                                                                                                                                                                                                                                                                                    
  8.750000E+02  1.250000E+02 -4.975000E+03  5.308965E+07  1.603764E+02  0.000000E+00  1.000000E+00  1.000000E+00  0.000000E+00  0.000000E+00  3.289528E+00  9.356975E+02  1.989321E-01  1.100000E-17  1.100000E-17  1.100000E-17  0.000000E+00  1.000000E+00                                                                                                                                                                                                                                                                                                                                                                                                                                                                                                                                                                    
  1.050000E+03  1.250000E+02 -4.975000E+03  5.330509E+07  5.243202E+01  0.000000E+00  1.000000E+00  1.000000E+00  0.000000E+00  0.000000E+00  9.290089E-02  1.008874E+03  2.976378E-01  1.100000E-10  1.100000E-10  1.100000E-10  0.000000E+00  1.000000E+00                                                                                                                                                                                                                                                                                                                                                                                                                                                                                                                                                                    
  1.225000E+03  1.250000E+02 -4.975000E+03  5.308965E+07  1.603764E+02  0.000000E+00  1.000000E+00  1.000000E+00  0.000000E+00  0.000000E+00  3.289528E+00  9.356975E+02  1.989321E-01  1.100000E-17  1.100000E-17  1.100000E-17  0.000000E+00  1.000000E+00                                                                                                                                                                                                                                                                                                                                                                                                                                                                                                                                                                    
  1.475000E+03  1.250000E+02 -4.975000E+03  5.360801E+07  1.641579E+02  0.000000E+00  1.000000E+00  1.000000E+00  0.000000E+00  0.000000E+00  3.599082E+00  9.326873E+02  1.992850E-01  1.100000E-17  1.100000E-17  1.100000E-17  0.000000E+00  1.000000E+00                                                                                                                                                                                                                                                                                                                                                                                                                                                                                                                                                                    
  1.725000E+03  1.250000E+02 -4.975000E+03  5.390990E+07  1.642191E+02  0.000000E+00  1.000000E+00  1.000000E+00  0.000000E+00  0.000000E+00  3.604272E+00  9.327852E+02  1.994779E-01  1.100000E-17  1.100000E-17  1.100000E-17  0.000000E+00  1.000000E+00                                                                                                                                                                                                                                                                                                                                                                                                                                                                                                                                                                    
  1.975000E+03  1.250000E+02 -4.975000E+03  5.402534E+07  1.642248E+02  0.000000E+00  1.000000E+00  1.000000E+00  0.000000E+00  0.000000E+00  3.604760E+00  9.328379E+02  1.995517E-01  1.100000E-17  1.100000E-17  1.100000E-17  0.000000E+00  1.000000E+00                                                                                                                                                                                                                                                                                                                                                                                                                                                                                                                                                                    
  1.250000E+02  1.250000E+02 -4.725000E+03  5.095309E+07  1.566923E+02  0.000000E+00  1.000000E+00  1.000000E+00  0.000000E+00  0.000000E+00  3.008820E+00  9.377936E+02  1.991936E-01  1.100000E-17  1.100000E-17  1.100000E-17  0.000000E+00  1.000000E+00                                                                                                                                                                                                                                                                                                                                                                                                                                                                                                                                                                    
  3.750000E+02  1.250000E+02 -4.725000E+03  5.091214E+07  1.566542E+02  0.000000E+00  1.000000E+00  1.000000E+00  0.000000E+00  0.000000E+00  3.006027E+00  9.378058E+02  1.991672E-01  1.100000E-17  1.100000E-17  1.100000E-17  0.000000E+00  1.000000E+00                                                                                                                                                                                                                                                                                                                                                                                                                                                                                                                                                                    
  6.250000E+02  1.250000E+02 -4.725000E+03  5.078567E+07  1.564637E+02  0.000000E+00  1.000000E+00  1.000000E+00  0.000000E+00  0.000000E+00  2.992061E+00  9.379058E+02  1.990855E-01  1.100000E-17  1.100000E-17  1.100000E-17  0.000000E+00  1.000000E+00                                                                                                                                                                                                                                                                                                                                                                                                                                                                                                                                                                    
  8.750000E+02  1.250000E+02 -4.725000E+03  5.051056E+07  1.524135E+02  0.000000E+00  1.000000E+00  1.000000E+00  0.000000E+00  0.000000E+00  2.707229E+00  9.411902E+02  1.988861E-01  1.100000E-17  1.100000E-17  1.100000E-17  0.000000E+00  1.000000E+00                                                                                                                                                                                                                                                                                                                                                                                                                                                                                                                                                                    
  1.050000E+03  1.250000E+02 -4.725000E+03  5.082829E+07  5.259365E+01  0.000000E+00  1.000000E+00  1.000000E+00  0.000000E+00  0.000000E+00  9.359147E-02  1.007833E+03  2.977391E-01  1.100000E-10  1.100000E-10  1.100000E-10  0.000000E+00  1.000000E+00                                                                                                                                                                                                                                                                                                                                                                                                                                                                                                                                                                    
  1.225000E+03  1.250000E+02 -4.725000E+03  5.051056E+07  1.524135E+02  0.000000E+00  1.000000E+00  1.000000E+00  0.000000E+00  0.000000E+00  2.707229E+00  9.411902E+02  1.988861E-01  1.100000E-17  1.100000E-17  1.100000E-17  0.000000E+00  1.000000E+00                                                                                                                                                                                                                                                                                                                                                                                                                                                                                                                                                                    
  1.475000E+03  1.250000E+02 -4.725000E+03  5.078567E+07  1.564637E+02  0.000000E+00  1.000000E+00  1.000000E+00  0.000000E+00  0.000000E+00  2.992061E+00  9.379058E+02  1.990855E-01  1.100000E-17  1.100000E-17  1.100000E-17  0.000000E+00  1.000000E+00                                                                                                                                                                                                                                                                                                                                                                                                                                                                                                                                                                    
  1.725000E+03  1.250000E+02 -4.725000E+03  5.091214E+07  1.566542E+02  0.000000E+00  1.000000E+00  1.000000E+00  0.000000E+00  0.000000E+00  3.006027E+00  9.378058E+02  1.991672E-01  1.100000E-17  1.100000E-17  1.100000E-17  0.000000E+00  1.000000E+00                                                                                                                                                                                                                                                                                                                                                                                                                                                                                                                                                                    