Title="TOUGHREACT V3.30-OMP flowdata.tec: P,T,SAT & Other Variables"                                                                                                                                                                                                                                                                                                                                                                                                                                                                                                                                                                                                                                                                                                                                                            
Variables= "X(m)"     "Y(m)"      "Z(m)"       "P(Pa)"        "T(C)"      "SatGas"      "SatLiq"          "X1"          "X2"    "Pcap(Pa)"  "DGas_kg/m3"  "DLiq_kg/m3"    "Porosity"  "Perm_X(m2)"  "Perm_Y(m2)"  "Perm_Z(m2)"    "Krel_Gas"    "Krel_Liq"                                                                                                                                                                                                                                                                                                                                                                                                                                                                                                                                                                      
Zone T= "1.00000000E+07 sec" I=     9 J=    10 K=    23 F=Point
  1.250000E+02  1.250000E+02 -5.425000E+03  5.924071E+07  1.777490E+02  0.000000E+00  1.000000E+00  1.000000E+00  0.000000E+00  0.000000E+00  4.909996E+00  9.235134E+02  1.999962E-01  1.100000E-17  1.100000E-17  1.100000E-17  0.000000E+00  1.000000E+00                                                                                                                                                                                                                                                                                                                                                                                                                                                                                                                                                                    
  3.750000E+02  1.250000E+02 -5.425000E+03  5.924071E+07  1.777490E+02  0.000000E+00  1.000000E+00  1.000000E+00  0.000000E+00  0.000000E+00  4.909996E+00  9.235134E+02  1.999962E-01  1.100000E-17  1.100000E-17  1.100000E-17  0.000000E+00  1.000000E+00                                                                                                                                                                                                                                                                                                                                                                                                                                                                                                                                                                    
  6.250000E+02  1.250000E+02 -5.425000E+03  5.924002E+07  1.777490E+02  0.000000E+00  1.000000E+00  1.000000E+00  0.000000E+00  0.000000E+00  4.909993E+00  9.235131E+02  1.999958E-01  1.100000E-17  1.100000E-17  1.100000E-17  0.000000E+00  1.000000E+00                                                                                                                                                                                                                                                                                                                                                                                                                                                                                                                                                                    
  8.750000E+02  1.250000E+02 -5.425000E+03  5.916159E+07  1.777454E+02  0.000000E+00  1.000000E+00  1.000000E+00  0.000000E+00  0.000000E+00  4.909598E+00  9.234758E+02  1.999456E-01  1.100000E-17  1.100000E-17  1.100000E-17  0.000000E+00  1.000000E+00                                                                                                                                                                                                                                                                                                                                                                                                                                                                                                                                                                    
  1.050000E+03  1.250000E+02 -5.425000E+03  5.636771E+07  1.775692E+02  0.000000E+00  1.000000E+00  1.000000E+00  0.000000E+00  0.000000E+00  4.890460E+00  9.221836E+02  2.972466E-01  1.100000E-10  1.100000E-10  1.100000E-10  0.000000E+00  1.000000E+00                                                                                                                                                                                                                                                                                                                                                                                                                                                                                                                                                                    
  1.225000E+03  1.250000E+02 -5.425000E+03  5.916159E+07  1.777454E+02  0.000000E+00  1.000000E+00  1.000000E+00  0.000000E+00  0.000000E+00  4.909598E+00  9.234758E+02  1.999456E-01  1.100000E-17  1.100000E-17  1.100000E-17  0.000000E+00  1.000000E+00                                                                                                                                                                                                                                                                                                                                                                                                                                                                                                                                                                    
  1.475000E+03  1.250000E+02 -5.425000E+03  5.924002E+07  1.777490E+02  0.000000E+00  1.000000E+00  1.000000E+00  0.000000E+00  0.000000E+00  4.909993E+00  9.235131E+02  1.999958E-01  1.100000E-17  1.100000E-17  1.100000E-17  0.000000E+00  1.000000E+00                                                                                                                                                                                                                                                                                                                                                                                                                                                                                                                                                                    
  1.725000E+03  1.250000E+02 -5.425000E+03  5.924071E+07  1.777490E+02  0.000000E+00  1.000000E+00  1.000000E+00  0.000000E+00  0.000000E+00  4.909996E+00  9.235134E+02  1.999962E-01  1.100000E-17  1.100000E-17  1.100000E-17  0.000000E+00  1.000000E+00                                                                                                                                                                                                                                                                                                                                                                                                                                                                                                                                                                    
  1.975000E+03  1.250000E+02 -5.425000E+03  5.924071E+07  1.777490E+02  0.000000E+00  1.000000E+00  1.000000E+00  0.000000E+00  0.000000E+00  4.909996E+00  9.235134E+02  1.999962E-01  1.100000E-17  1.100000E-17  1.100000E-17  0.000000E+00  1.000000E+00                                                                                                                                                                                                                                                                                                                                                                                                                                                                                                                                                                    
  1.250000E+02  1.250000E+02 -5.225000E+03  5.723781E+07  1.717500E+02  0.000000E+00  1.000000E+00  1.000000E+00  0.000000E+00  0.000000E+00  4.291031E+00  9.278504E+02  2.000001E-01  1.100000E-17  1.100000E-17  1.100000E-17  0.000000E+00  1.000000E+00                                                                                                                                                                                                                                                                                                                                                                                                                                                                                                                                                                    
  3.750000E+02  1.250000E+02 -5.225000E+03  5.723781E+07  1.717500E+02  0.000000E+00  1.000000E+00  1.000000E+00  0.000000E+00  0.000000E+00  4.291030E+00  9.278504E+02  2.000001E-01  1.100000E-17  1.100000E-17  1.100000E-17  0.000000E+00  1.000000E+00                                                                                                                                                                                                                                                                                                                                                                                                                                                                                                                                                                    
  6.250000E+02  1.250000E+02 -5.225000E+03  5.723720E+07  1.717500E+02  0.000000E+00  1.000000E+00  1.000000E+00  0.000000E+00  0.000000E+00  4.291028E+00  9.278502E+02  1.999997E-01  1.100000E-17  1.100000E-17  1.100000E-17  0.000000E+00  1.000000E+00                                                                                                                                                                                                                                                                                                                                                                                                                                                                                                                                                                    
  8.750000E+02  1.250000E+02 -5.225000E+03  5.716593E+07  1.717468E+02  0.000000E+00  1.000000E+00  1.000000E+00  0.000000E+00  0.000000E+00  4.290717E+00  9.278167E+02  1.999541E-01  1.100000E-17  1.100000E-17  1.100000E-17  0.000000E+00  1.000000E+00                                                                                                                                                                                                                                                                                                                                                                                                                                                                                                                                                                    
  1.050000E+03  1.250000E+02 -5.225000E+03  5.455589E+07  1.716017E+02  0.000000E+00  1.000000E+00  1.000000E+00  0.000000E+00  0.000000E+00  4.276560E+00  9.266122E+02  2.974345E-01  1.100000E-10  1.100000E-10  1.100000E-10  0.000000E+00  1.000000E+00                                                                                                                                                                                                                                                                                                                                                                                                                                                                                                                                                                    
  1.225000E+03  1.250000E+02 -5.225000E+03  5.716593E+07  1.717468E+02  0.000000E+00  1.000000E+00  1.000000E+00  0.000000E+00  0.000000E+00  4.290717E+00  9.278167E+02  1.999541E-01  1.100000E-17  1.100000E-17  1.100000E-17  0.000000E+00  1.000000E+00                                                                                                                                                                                                                                                                                                                                                                                                                                                                                                                                                                    
  1.475000E+03  1.250000E+02 -5.225000E+03  5.723720E+07  1.717500E+02  0.000000E+00  1.000000E+00  1.000000E+00  0.000000E+00  0.000000E+00  4.291028E+00  9.278502E+02  1.999997E-01  1.100000E-17  1.100000E-17  1.100000E-17  0.000000E+00  1.000000E+00                                                                                                                                                                                                                                                                                                                                                                                                                                                                                                                                                                    
  1.725000E+03  1.250000E+02 -5.225000E+03  5.723781E+07  1.717500E+02  0.000000E+00  1.000000E+00  1.000000E+00  0.000000E+00  0.000000E+00  4.291030E+00  9.278504E+02  2.000001E-01  1.100000E-17  1.100000E-17  1.100000E-17  0.000000E+00  1.000000E+00                                                                                                                                                                                                                                                                                                                                                                                                                                                                                                                                                                    
  1.975000E+03  1.250000E+02 -5.225000E+03  5.723781E+07  1.717500E+02  0.000000E+00  1.000000E+00  1.000000E+00  0.000000E+00  0.000000E+00  4.291031E+00  9.278504E+02  2.000001E-01  1.100000E-17  1.100000E-17  1.100000E-17  0.000000E+00  1.000000E+00                                                                                                                                                                                                                                                                                                                                                                                                                                                                                                                                                                    
  1.250000E+02  1.250000E+02 -4.975000E+03  5.472626E+07  1.642500E+02  0.000000E+00  1.000000E+00  1.000000E+00  0.000000E+00  0.000000E+00  3.606902E+00  9.331659E+02  1.999999E-01  1.100000E-17  1.100000E-17  1.100000E-17  0.000000E+00  1.000000E+00                                                                                                                                                                                                                                                                                                                                                                                                                                                                                                                                                                    
  3.750000E+02  1.250000E+02 -4.975000E+03  5.472625E+07  1.642500E+02  0.000000E+00  1.000000E+00  1.000000E+00  0.000000E+00  0.000000E+00  3.606902E+00  9.331659E+02  1.999999E-01  1.100000E-17  1.100000E-17  1.100000E-17  0.000000E+00  1.000000E+00                                                                                                                                                                                                                                                                                                                                                                                                                                                                                                                                                                    
  6.250000E+02  1.250000E+02 -4.975000E+03  5.472573E+07  1.642500E+02  0.000000E+00  1.000000E+00  1.000000E+00  0.000000E+00  0.000000E+00  3.606900E+00  9.331657E+02  1.999996E-01  1.100000E-17  1.100000E-17  1.100000E-17  0.000000E+00  1.000000E+00                                                                                                                                                                                                                                                                                                                                                                                                                                                                                                                                                                    
  8.750000E+02  1.250000E+02 -4.975000E+03  5.466307E+07  1.642473E+02  0.000000E+00  1.000000E+00  1.000000E+00  0.000000E+00  0.000000E+00  3.606674E+00  9.331367E+02  1.999595E-01  1.100000E-17  1.100000E-17  1.100000E-17  0.000000E+00  1.000000E+00                                                                                                                                                                                                                                                                                                                                                                                                                                                                                                                                                                    
  1.050000E+03  1.250000E+02 -4.975000E+03  5.227906E+07  1.641607E+02  0.000000E+00  1.000000E+00  1.000000E+00  0.000000E+00  0.000000E+00  3.599315E+00  9.320183E+02  2.976583E-01  1.100000E-10  1.100000E-10  1.100000E-10  0.000000E+00  1.000000E+00                                                                                                                                                                                                                                                                                                                                                                                                                                                                                                                                                                    
  1.225000E+03  1.250000E+02 -4.975000E+03  5.466307E+07  1.642473E+02  0.000000E+00  1.000000E+00  1.000000E+00  0.000000E+00  0.000000E+00  3.606674E+00  9.331367E+02  1.999595E-01  1.100000E-17  1.100000E-17  1.100000E-17  0.000000E+00  1.000000E+00                                                                                                                                                                                                                                                                                                                                                                                                                                                                                                                                                                    
  1.475000E+03  1.250000E+02 -4.975000E+03  5.472573E+07  1.642500E+02  0.000000E+00  1.000000E+00  1.000000E+00  0.000000E+00  0.000000E+00  3.606900E+00  9.331657E+02  1.999996E-01  1.100000E-17  1.100000E-17  1.100000E-17  0.000000E+00  1.000000E+00                                                                                                                                                                                                                                                                                                                                                                                                                                                                                                                                                                    
  1.725000E+03  1.250000E+02 -4.975000E+03  5.472625E+07  1.642500E+02  0.000000E+00  1.000000E+00  1.000000E+00  0.000000E+00  0.000000E+00  3.606902E+00  9.331659E+02  1.999999E-01  1.100000E-17  1.100000E-17  1.100000E-17  0.000000E+00  1.000000E+00                                                                                                                                                                                                                                                                                                                                                                                                                                                                                                                                                                    
  1.975000E+03  1.250000E+02 -4.975000E+03  5.472626E+07  1.642500E+02  0.000000E+00  1.000000E+00  1.000000E+00  0.000000E+00  0.000000E+00  3.606902E+00  9.331659E+02  1.999999E-01  1.100000E-17  1.100000E-17  1.100000E-17  0.000000E+00  1.000000E+00                                                                                                                                                                                                                                                                                                                                                                                                                                                                                                                                                                    
  1.250000E+02  1.250000E+02 -4.725000E+03  5.216495E+07  1.567480E+02  0.000000E+00  1.000000E+00  1.000000E+00  0.000000E+00  0.000000E+00  3.012918E+00  9.383404E+02  1.999679E-01  1.100000E-17  1.100000E-17  1.100000E-17  0.000000E+00  1.000000E+00                                                                                                                                                                                                                                                                                                                                                                                                                                                                                                                                                                    
  3.750000E+02  1.250000E+02 -4.725000E+03  5.216473E+07  1.567480E+02  0.000000E+00  1.000000E+00  1.000000E+00  0.000000E+00  0.000000E+00  3.012918E+00  9.383403E+02  1.999677E-01  1.100000E-17  1.100000E-17  1.100000E-17  0.000000E+00  1.000000E+00                                                                                                                                                                                                                                                                                                                                                                                                                                                                                                                                                                    
  6.250000E+02  1.250000E+02 -4.725000E+03  5.216386E+07  1.567480E+02  0.000000E+00  1.000000E+00  1.000000E+00  0.000000E+00  0.000000E+00  3.012915E+00  9.383399E+02  1.999672E-01  1.100000E-17  1.100000E-17  1.100000E-17  0.000000E+00  1.000000E+00                                                                                                                                                                                                                                                                                                                                                                                                                                                                                                                                                                    
  8.750000E+02  1.250000E+02 -4.725000E+03  5.210997E+07  1.567458E+02  0.000000E+00  1.000000E+00  1.000000E+00  0.000000E+00  0.000000E+00  3.012756E+00  9.383154E+02  1.999327E-01  1.100000E-17  1.100000E-17  1.100000E-17  0.000000E+00  1.000000E+00                                                                                                                                                                                                                                                                                                                                                                                                                                                                                                                                                                    
  1.050000E+03  1.250000E+02 -4.725000E+03  4.998913E+07  1.567104E+02  0.000000E+00  1.000000E+00  1.000000E+00  0.000000E+00  0.000000E+00  3.010154E+00  9.373039E+02  2.978697E-01  1.100000E-10  1.100000E-10  1.100000E-10  0.000000E+00  1.000000E+00                                                                                                                                                                                                                                                                                                                                                                                                                                                                                                                                                                    
  1.225000E+03  1.250000E+02 -4.725000E+03  5.210997E+07  1.567458E+02  0.000000E+00  1.000000E+00  1.000000E+00  0.000000E+00  0.000000E+00  3.012756E+00  9.383154E+02  1.999327E-01  1.100000E-17  1.100000E-17  1.100000E-17  0.000000E+00  1.000000E+00                                                                                                                                                                                                                                                                                                                                                                                                                                                                                                                                                                    
  1.475000E+03  1.250000E+02 -4.725000E+03  5.216386E+07  1.567480E+02  0.000000E+00  1.000000E+00  1.000000E+00  0.000000E+00  0.000000E+00  3.012915E+00  9.383399E+02  1.999672E-01  1.100000E-17  1.100000E-17  1.100000E-17  0.000000E+00  1.000000E+00                                                                                                                                                                                                                                                                                                                                                                                                                                                                                                                                                                    
  1.725000E+03  1.250000E+02 -4.725000E+03  5.216473E+07  1.567480E+02  0.000000E+00  1.000000E+00  1.000000E+00  0.000000E+00  0.000000E+00  3.012918E+00  9.383403E+02  1.999677E-01  1.100000E-17  1.100000E-17  1.100000E-17  0.000000E+00  1.000000E+00                                                                                                                                                                                                                                                                                                                                                                                                                                                                                                                                                                    