Title="TOUGHREACT V3.30-OMP flowdata.tec: P,T,SAT & Other Variables"                                                                                                                                                                                                                                                                                                                                                                                                                                                                                                                                                                                                                                                                                                                                                            
Variables= "X(m)"     "Y(m)"      "Z(m)"       "P(Pa)"        "T(C)"      "SatGas"      "SatLiq"          "X1"          "X2"    "Pcap(Pa)"  "DGas_kg/m3"  "DLiq_kg/m3"    "Porosity"  "Perm_X(m2)"  "Perm_Y(m2)"  "Perm_Z(m2)"    "Krel_Gas"    "Krel_Liq"                                                                                                                                                                                                                                                                                                                                                                                                                                                                                                                                                                      
Zone T= "1.00000000E+10 sec" I=     9 J=    10 K=    23 F=Point
  1.250000E+02  1.250000E+02 -5.425000E+03  5.181302E+07  1.969737E+02  0.000000E+00  1.000000E+00  1.000000E+00  0.000000E+00  0.000000E+00  7.394117E+00  9.013722E+02  1.954112E-01  1.100000E-17  1.100000E-17  1.100000E-17  0.000000E+00  1.000000E+00                                                                                                                                                                                                                                                                                                                                                                                                                                                                                                                                                                    
  3.750000E+02  1.250000E+02 -5.425000E+03  5.173442E+07  1.965303E+02  0.000000E+00  1.000000E+00  1.000000E+00  0.000000E+00  0.000000E+00  7.327204E+00  9.017619E+02  1.953594E-01  1.100000E-17  1.100000E-17  1.100000E-17  0.000000E+00  1.000000E+00                                                                                                                                                                                                                                                                                                                                                                                                                                                                                                                                                                    
  6.250000E+02  1.250000E+02 -5.425000E+03  5.160094E+07  1.916490E+02  0.000000E+00  1.000000E+00  1.000000E+00  0.000000E+00  0.000000E+00  6.622555E+00  9.064314E+02  1.952474E-01  1.100000E-17  1.100000E-17  1.100000E-17  0.000000E+00  1.000000E+00                                                                                                                                                                                                                                                                                                                                                                                                                                                                                                                                                                    
  8.750000E+02  1.250000E+02 -5.425000E+03  5.155307E+07  1.542218E+02  0.000000E+00  1.000000E+00  1.000000E+00  0.000000E+00  0.000000E+00  2.831585E+00  9.401773E+02  1.949981E-01  1.100000E-17  1.100000E-17  1.100000E-17  0.000000E+00  1.000000E+00                                                                                                                                                                                                                                                                                                                                                                                                                                                                                                                                                                    
  1.050000E+03  1.250000E+02 -5.425000E+03  5.228241E+07  3.957552E+01  0.000000E+00  1.000000E+00  1.000000E+00  0.000000E+00  0.000000E+00  5.008040E-02  1.014086E+03  2.921636E-01  1.100000E-10  1.100000E-10  1.100000E-10  0.000000E+00  1.000000E+00                                                                                                                                                                                                                                                                                                                                                                                                                                                                                                                                                                    
  1.225000E+03  1.250000E+02 -5.425000E+03  5.155307E+07  1.542218E+02  0.000000E+00  1.000000E+00  1.000000E+00  0.000000E+00  0.000000E+00  2.831585E+00  9.401773E+02  1.949981E-01  1.100000E-17  1.100000E-17  1.100000E-17  0.000000E+00  1.000000E+00                                                                                                                                                                                                                                                                                                                                                                                                                                                                                                                                                                    
  1.475000E+03  1.250000E+02 -5.425000E+03  5.160094E+07  1.916490E+02  0.000000E+00  1.000000E+00  1.000000E+00  0.000000E+00  0.000000E+00  6.622555E+00  9.064314E+02  1.952474E-01  1.100000E-17  1.100000E-17  1.100000E-17  0.000000E+00  1.000000E+00                                                                                                                                                                                                                                                                                                                                                                                                                                                                                                                                                                    
  1.725000E+03  1.250000E+02 -5.425000E+03  5.173442E+07  1.965303E+02  0.000000E+00  1.000000E+00  1.000000E+00  0.000000E+00  0.000000E+00  7.327204E+00  9.017619E+02  1.953594E-01  1.100000E-17  1.100000E-17  1.100000E-17  0.000000E+00  1.000000E+00                                                                                                                                                                                                                                                                                                                                                                                                                                                                                                                                                                    
  1.975000E+03  1.250000E+02 -5.425000E+03  5.181302E+07  1.969737E+02  0.000000E+00  1.000000E+00  1.000000E+00  0.000000E+00  0.000000E+00  7.394116E+00  9.013722E+02  1.954112E-01  1.100000E-17  1.100000E-17  1.100000E-17  0.000000E+00  1.000000E+00                                                                                                                                                                                                                                                                                                                                                                                                                                                                                                                                                                    
  1.250000E+02  1.250000E+02 -5.225000E+03  4.992313E+07  1.745236E+02  0.000000E+00  1.000000E+00  1.000000E+00  0.000000E+00  0.000000E+00  4.568895E+00  9.215673E+02  1.953892E-01  1.100000E-17  1.100000E-17  1.100000E-17  0.000000E+00  1.000000E+00                                                                                                                                                                                                                                                                                                                                                                                                                                                                                                                                                                    
  3.750000E+02  1.250000E+02 -5.225000E+03  4.984510E+07  1.740845E+02  0.000000E+00  1.000000E+00  1.000000E+00  0.000000E+00  0.000000E+00  4.523969E+00  9.219257E+02  1.953379E-01  1.100000E-17  1.100000E-17  1.100000E-17  0.000000E+00  1.000000E+00                                                                                                                                                                                                                                                                                                                                                                                                                                                                                                                                                                    
  6.250000E+02  1.250000E+02 -5.225000E+03  4.970779E+07  1.694988E+02  0.000000E+00  1.000000E+00  1.000000E+00  0.000000E+00  0.000000E+00  4.075612E+00  9.259905E+02  1.952251E-01  1.100000E-17  1.100000E-17  1.100000E-17  0.000000E+00  1.000000E+00                                                                                                                                                                                                                                                                                                                                                                                                                                                                                                                                                                    
  8.750000E+02  1.250000E+02 -5.225000E+03  4.963873E+07  1.353733E+02  0.000000E+00  1.000000E+00  1.000000E+00  0.000000E+00  0.000000E+00  1.736372E+00  9.546003E+02  1.949820E-01  1.100000E-17  1.100000E-17  1.100000E-17  0.000000E+00  1.000000E+00                                                                                                                                                                                                                                                                                                                                                                                                                                                                                                                                                                    
  1.050000E+03  1.250000E+02 -5.225000E+03  5.029340E+07  3.815070E+01  0.000000E+00  1.000000E+00  1.000000E+00  0.000000E+00  0.000000E+00  4.659391E-02  1.013871E+03  2.922224E-01  1.100000E-10  1.100000E-10  1.100000E-10  0.000000E+00  1.000000E+00                                                                                                                                                                                                                                                                                                                                                                                                                                                                                                                                                                    
  1.225000E+03  1.250000E+02 -5.225000E+03  4.963873E+07  1.353733E+02  0.000000E+00  1.000000E+00  1.000000E+00  0.000000E+00  0.000000E+00  1.736373E+00  9.546003E+02  1.949820E-01  1.100000E-17  1.100000E-17  1.100000E-17  0.000000E+00  1.000000E+00                                                                                                                                                                                                                                                                                                                                                                                                                                                                                                                                                                    
  1.475000E+03  1.250000E+02 -5.225000E+03  4.970779E+07  1.694988E+02  0.000000E+00  1.000000E+00  1.000000E+00  0.000000E+00  0.000000E+00  4.075612E+00  9.259905E+02  1.952251E-01  1.100000E-17  1.100000E-17  1.100000E-17  0.000000E+00  1.000000E+00                                                                                                                                                                                                                                                                                                                                                                                                                                                                                                                                                                    
  1.725000E+03  1.250000E+02 -5.225000E+03  4.984510E+07  1.740845E+02  0.000000E+00  1.000000E+00  1.000000E+00  0.000000E+00  0.000000E+00  4.523969E+00  9.219257E+02  1.953379E-01  1.100000E-17  1.100000E-17  1.100000E-17  0.000000E+00  1.000000E+00                                                                                                                                                                                                                                                                                                                                                                                                                                                                                                                                                                    
  1.975000E+03  1.250000E+02 -5.225000E+03  4.992313E+07  1.745236E+02  0.000000E+00  1.000000E+00  1.000000E+00  0.000000E+00  0.000000E+00  4.568895E+00  9.215673E+02  1.953892E-01  1.100000E-17  1.100000E-17  1.100000E-17  0.000000E+00  1.000000E+00                                                                                                                                                                                                                                                                                                                                                                                                                                                                                                                                                                    
  1.250000E+02  1.250000E+02 -4.975000E+03  4.747786E+07  1.636023E+02  0.000000E+00  1.000000E+00  1.000000E+00  0.000000E+00  0.000000E+00  3.552193E+00  9.300755E+02  1.954104E-01  1.100000E-17  1.100000E-17  1.100000E-17  0.000000E+00  1.000000E+00                                                                                                                                                                                                                                                                                                                                                                                                                                                                                                                                                                    
  3.750000E+02  1.250000E+02 -4.975000E+03  4.740812E+07  1.629451E+02  0.000000E+00  1.000000E+00  1.000000E+00  0.000000E+00  0.000000E+00  3.497361E+00  9.306175E+02  1.953629E-01  1.100000E-17  1.100000E-17  1.100000E-17  0.000000E+00  1.000000E+00                                                                                                                                                                                                                                                                                                                                                                                                                                                                                                                                                                    
  6.250000E+02  1.250000E+02 -4.975000E+03  4.728381E+07  1.582746E+02  0.000000E+00  1.000000E+00  1.000000E+00  0.000000E+00  0.000000E+00  3.126932E+00  9.346189E+02  1.952578E-01  1.100000E-17  1.100000E-17  1.100000E-17  0.000000E+00  1.000000E+00                                                                                                                                                                                                                                                                                                                                                                                                                                                                                                                                                                    
  8.750000E+02  1.250000E+02 -4.975000E+03  4.722040E+07  1.265720E+02  0.000000E+00  1.000000E+00  1.000000E+00  0.000000E+00  0.000000E+00  1.358249E+00  9.602931E+02  1.950323E-01  1.100000E-17  1.100000E-17  1.100000E-17  0.000000E+00  1.000000E+00                                                                                                                                                                                                                                                                                                                                                                                                                                                                                                                                                                    
  1.050000E+03  1.250000E+02 -4.975000E+03  4.780645E+07  3.826768E+01  0.000000E+00  1.000000E+00  1.000000E+00  0.000000E+00  0.000000E+00  4.687212E-02  1.012839E+03  2.923121E-01  1.100000E-10  1.100000E-10  1.100000E-10  0.000000E+00  1.000000E+00                                                                                                                                                                                                                                                                                                                                                                                                                                                                                                                                                                    
  1.225000E+03  1.250000E+02 -4.975000E+03  4.722040E+07  1.265720E+02  0.000000E+00  1.000000E+00  1.000000E+00  0.000000E+00  0.000000E+00  1.358249E+00  9.602931E+02  1.950323E-01  1.100000E-17  1.100000E-17  1.100000E-17  0.000000E+00  1.000000E+00                                                                                                                                                                                                                                                                                                                                                                                                                                                                                                                                                                    
  1.475000E+03  1.250000E+02 -4.975000E+03  4.728381E+07  1.582746E+02  0.000000E+00  1.000000E+00  1.000000E+00  0.000000E+00  0.000000E+00  3.126932E+00  9.346189E+02  1.952578E-01  1.100000E-17  1.100000E-17  1.100000E-17  0.000000E+00  1.000000E+00                                                                                                                                                                                                                                                                                                                                                                                                                                                                                                                                                                    
  1.725000E+03  1.250000E+02 -4.975000E+03  4.740812E+07  1.629451E+02  0.000000E+00  1.000000E+00  1.000000E+00  0.000000E+00  0.000000E+00  3.497361E+00  9.306175E+02  1.953629E-01  1.100000E-17  1.100000E-17  1.100000E-17  0.000000E+00  1.000000E+00                                                                                                                                                                                                                                                                                                                                                                                                                                                                                                                                                                    
  1.975000E+03  1.250000E+02 -4.975000E+03  4.747786E+07  1.636023E+02  0.000000E+00  1.000000E+00  1.000000E+00  0.000000E+00  0.000000E+00  3.552193E+00  9.300755E+02  1.954104E-01  1.100000E-17  1.100000E-17  1.100000E-17  0.000000E+00  1.000000E+00                                                                                                                                                                                                                                                                                                                                                                                                                                                                                                                                                                    
  1.250000E+02  1.250000E+02 -4.725000E+03  4.507409E+07  1.490189E+02  0.000000E+00  1.000000E+00  1.000000E+00  0.000000E+00  0.000000E+00  2.485616E+00  9.413900E+02  1.954358E-01  1.100000E-17  1.100000E-17  1.100000E-17  0.000000E+00  1.000000E+00                                                                                                                                                                                                                                                                                                                                                                                                                                                                                                                                                                    
  3.750000E+02  1.250000E+02 -4.725000E+03  4.502789E+07  1.462966E+02  0.000000E+00  1.000000E+00  1.000000E+00  0.000000E+00  0.000000E+00  2.318598E+00  9.436318E+02  1.953910E-01  1.100000E-17  1.100000E-17  1.100000E-17  0.000000E+00  1.000000E+00                                                                                                                                                                                                                                                                                                                                                                                                                                                                                                                                                                    
  6.250000E+02  1.250000E+02 -4.725000E+03  4.494475E+07  1.388711E+02  0.000000E+00  1.000000E+00  1.000000E+00  0.000000E+00  0.000000E+00  1.908284E+00  9.496443E+02  1.952954E-01  1.100000E-17  1.100000E-17  1.100000E-17  0.000000E+00  1.000000E+00                                                                                                                                                                                                                                                                                                                                                                                                                                                                                                                                                                    
  8.750000E+02  1.250000E+02 -4.725000E+03  4.491016E+07  1.094594E+02  0.000000E+00  1.000000E+00  1.000000E+00  0.000000E+00  0.000000E+00  8.125383E-01  9.717904E+02  1.951012E-01  1.100000E-17  1.100000E-17  1.100000E-17  0.000000E+00  1.000000E+00                                                                                                                                                                                                                                                                                                                                                                                                                                                                                                                                                                    
  1.050000E+03  1.250000E+02 -4.725000E+03  4.532077E+07  3.860813E+01  0.000000E+00  1.000000E+00  1.000000E+00  0.000000E+00  0.000000E+00  4.768992E-02  1.011716E+03  2.924049E-01  1.100000E-10  1.100000E-10  1.100000E-10  0.000000E+00  1.000000E+00                                                                                                                                                                                                                                                                                                                                                                                                                                                                                                                                                                    
  1.225000E+03  1.250000E+02 -4.725000E+03  4.491016E+07  1.094594E+02  0.000000E+00  1.000000E+00  1.000000E+00  0.000000E+00  0.000000E+00  8.125383E-01  9.717904E+02  1.951012E-01  1.100000E-17  1.100000E-17  1.100000E-17  0.000000E+00  1.000000E+00                                                                                                                                                                                                                                                                                                                                                                                                                                                                                                                                                                    
  1.475000E+03  1.250000E+02 -4.725000E+03  4.494475E+07  1.388711E+02  0.000000E+00  1.000000E+00  1.000000E+00  0.000000E+00  0.000000E+00  1.908284E+00  9.496443E+02  1.952954E-01  1.100000E-17  1.100000E-17  1.100000E-17  0.000000E+00  1.000000E+00                                                                                                                                                                                                                                                                                                                                                                                                                                                                                                                                                                    
  1.725000E+03  1.250000E+02 -4.725000E+03  4.502789E+07  1.462966E+02  0.000000E+00  1.000000E+00  1.000000E+00  0.000000E+00  0.000000E+00  2.318598E+00  9.436318E+02  1.953910E-01  1.100000E-17  1.100000E-17  1.100000E-17  0.000000E+00  1.000000E+00                                                                                                                                                                                                                                                                                                                                                                                                                                                                                                                                                                    