Title="TOUGHREACT V3.30-OMP: Mineral Abundances(Total or Changes) and/or Exchanged Species: Change in volume fraction"                                                                                                                                                                                                                                                                                                                                                                                                                                                                                                                                                                                                                                                                                                          
Variables= "X(m)"   "Y(m)"   "Z(m)"       "T(C)"   "Porosity"  "Poros_Chg" "Permx(m^2)"     "Kx/Kx0" "Permz(m^2)"     "Kz/Kz0" "quartz(alpha"     "dolomite"    "kaolinite"      "calcite"                                                                                                                                                                                                                                                                                                                                                                                                                                                                                                                                                                                                                                      
Zone T= "1.64274691E-02 yr" I=      9 J=     10 K=     24 F=Point 
     125.0000     125.0000   -5425.0000  158.126  0.20000  1.76827E-06  1.10000E-17  1.0000E+00  1.10000E-17  1.0000E+00 -1.1148E-05 -1.1723E-06 -2.2250E-07  0.0000E+00                                                                                                                                                                                                                                                                                                                                                                                                                                                                                                                                                                                                                                                        
     375.0000     125.0000   -5425.0000  158.126  0.20000  1.76827E-06  1.10000E-17  1.0000E+00  1.10000E-17  1.0000E+00 -1.1148E-05 -1.1723E-06 -2.2250E-07  0.0000E+00                                                                                                                                                                                                                                                                                                                                                                                                                                                                                                                                                                                                                                                        
     625.0000     125.0000   -5425.0000  158.126  0.20000  1.76771E-06  1.10000E-17  1.0000E+00  1.10000E-17  1.0000E+00 -1.1148E-05 -1.1723E-06 -2.2250E-07  0.0000E+00                                                                                                                                                                                                                                                                                                                                                                                                                                                                                                                                                                                                                                                        
     875.0000     125.0000   -5425.0000  158.126  0.20000  3.86884E-07  1.10000E-17  1.0000E+00  1.10000E-17  1.0000E+00 -1.1148E-05 -1.1723E-06 -2.2250E-07  0.0000E+00                                                                                                                                                                                                                                                                                                                                                                                                                                                                                                                                                                                                                                                        
    1050.0000     125.0000   -5425.0000  158.030  0.29842 -1.58289E-03  1.10000E-10  1.0000E+00  1.10000E-10  1.0000E+00 -1.6701E-05 -1.7589E-06 -3.3307E-07  0.0000E+00                                                                                                                                                                                                                                                                                                                                                                                                                                                                                                                                                                                                                                                        
    1225.0000     125.0000   -5425.0000  158.126  0.20000  3.86884E-07  1.10000E-17  1.0000E+00  1.10000E-17  1.0000E+00 -1.1148E-05 -1.1723E-06 -2.2250E-07  0.0000E+00                                                                                                                                                                                                                                                                                                                                                                                                                                                                                                                                                                                                                                                        
    1475.0000     125.0000   -5425.0000  158.126  0.20000  1.76771E-06  1.10000E-17  1.0000E+00  1.10000E-17  1.0000E+00 -1.1148E-05 -1.1723E-06 -2.2250E-07  0.0000E+00                                                                                                                                                                                                                                                                                                                                                                                                                                                                                                                                                                                                                                                        
    1725.0000     125.0000   -5425.0000  158.126  0.20000  1.76827E-06  1.10000E-17  1.0000E+00  1.10000E-17  1.0000E+00 -1.1148E-05 -1.1723E-06 -2.2250E-07  0.0000E+00                                                                                                                                                                                                                                                                                                                                                                                                                                                                                                                                                                                                                                                        
    1975.0000     125.0000   -5425.0000  158.126  0.20000  1.76827E-06  1.10000E-17  1.0000E+00  1.10000E-17  1.0000E+00 -1.1148E-05 -1.1723E-06 -2.2250E-07  0.0000E+00                                                                                                                                                                                                                                                                                                                                                                                                                                                                                                                                                                                                                                                        
     125.0000     125.0000   -5225.0000  153.126  0.20000  1.81241E-06  1.10000E-17  1.0000E+00  1.10000E-17  1.0000E+00 -1.0493E-05 -1.1963E-06 -2.0142E-07  0.0000E+00                                                                                                                                                                                                                                                                                                                                                                                                                                                                                                                                                                                                                                                        
     375.0000     125.0000   -5225.0000  153.126  0.20000  1.81240E-06  1.10000E-17  1.0000E+00  1.10000E-17  1.0000E+00 -1.0493E-05 -1.1963E-06 -2.0142E-07  0.0000E+00                                                                                                                                                                                                                                                                                                                                                                                                                                                                                                                                                                                                                                                        
     625.0000     125.0000   -5225.0000  153.126  0.20000  1.81193E-06  1.10000E-17  1.0000E+00  1.10000E-17  1.0000E+00 -1.0493E-05 -1.1963E-06 -2.0142E-07  0.0000E+00                                                                                                                                                                                                                                                                                                                                                                                                                                                                                                                                                                                                                                                        
     875.0000     125.0000   -5225.0000  153.126  0.20000  6.04361E-07  1.10000E-17  1.0000E+00  1.10000E-17  1.0000E+00 -1.0493E-05 -1.1963E-06 -2.0142E-07  0.0000E+00                                                                                                                                                                                                                                                                                                                                                                                                                                                                                                                                                                                                                                                        
    1050.0000     125.0000   -5225.0000  153.050  0.29857 -1.42739E-03  1.10000E-10  1.0000E+00  1.10000E-10  1.0000E+00 -1.5719E-05 -1.7948E-06 -3.0152E-07  0.0000E+00                                                                                                                                                                                                                                                                                                                                                                                                                                                                                                                                                                                                                                                        
    1225.0000     125.0000   -5225.0000  153.126  0.20000  6.04361E-07  1.10000E-17  1.0000E+00  1.10000E-17  1.0000E+00 -1.0493E-05 -1.1963E-06 -2.0142E-07  0.0000E+00                                                                                                                                                                                                                                                                                                                                                                                                                                                                                                                                                                                                                                                        
    1475.0000     125.0000   -5225.0000  153.126  0.20000  1.81193E-06  1.10000E-17  1.0000E+00  1.10000E-17  1.0000E+00 -1.0493E-05 -1.1963E-06 -2.0142E-07  0.0000E+00                                                                                                                                                                                                                                                                                                                                                                                                                                                                                                                                                                                                                                                        
    1725.0000     125.0000   -5225.0000  153.126  0.20000  1.81240E-06  1.10000E-17  1.0000E+00  1.10000E-17  1.0000E+00 -1.0493E-05 -1.1963E-06 -2.0142E-07  0.0000E+00                                                                                                                                                                                                                                                                                                                                                                                                                                                                                                                                                                                                                                                        
    1975.0000     125.0000   -5225.0000  153.126  0.20000  1.81241E-06  1.10000E-17  1.0000E+00  1.10000E-17  1.0000E+00 -1.0493E-05 -1.1963E-06 -2.0142E-07  0.0000E+00                                                                                                                                                                                                                                                                                                                                                                                                                                                                                                                                                                                                                                                        
     125.0000     125.0000   -4975.0000  146.876  0.20000  1.66067E-06  1.10000E-17  1.0000E+00  1.10000E-17  1.0000E+00 -9.7087E-06 -1.2262E-06 -1.7751E-07  0.0000E+00                                                                                                                                                                                                                                                                                                                                                                                                                                                                                                                                                                                                                                                        
     375.0000     125.0000   -4975.0000  146.876  0.20000  1.66065E-06  1.10000E-17  1.0000E+00  1.10000E-17  1.0000E+00 -9.7087E-06 -1.2262E-06 -1.7751E-07  0.0000E+00                                                                                                                                                                                                                                                                                                                                                                                                                                                                                                                                                                                                                                                        
     625.0000     125.0000   -4975.0000  146.876  0.20000  1.66024E-06  1.10000E-17  1.0000E+00  1.10000E-17  1.0000E+00 -9.7087E-06 -1.2262E-06 -1.7751E-07  0.0000E+00                                                                                                                                                                                                                                                                                                                                                                                                                                                                                                                                                                                                                                                        
     875.0000     125.0000   -4975.0000  146.876  0.20000  6.52321E-07  1.10000E-17  1.0000E+00  1.10000E-17  1.0000E+00 -9.7087E-06 -1.2262E-06 -1.7751E-07  0.0000E+00                                                                                                                                                                                                                                                                                                                                                                                                                                                                                                                                                                                                                                                        
    1050.0000     125.0000   -4975.0000  146.830  0.29876 -1.24133E-03  1.10000E-10  1.0000E+00  1.10000E-10  1.0000E+00 -1.4542E-05 -1.8397E-06 -2.6565E-07  0.0000E+00                                                                                                                                                                                                                                                                                                                                                                                                                                                                                                                                                                                                                                                        
    1225.0000     125.0000   -4975.0000  146.876  0.20000  6.52321E-07  1.10000E-17  1.0000E+00  1.10000E-17  1.0000E+00 -9.7087E-06 -1.2262E-06 -1.7751E-07  0.0000E+00                                                                                                                                                                                                                                                                                                                                                                                                                                                                                                                                                                                                                                                        
    1475.0000     125.0000   -4975.0000  146.876  0.20000  1.66024E-06  1.10000E-17  1.0000E+00  1.10000E-17  1.0000E+00 -9.7087E-06 -1.2262E-06 -1.7751E-07  0.0000E+00                                                                                                                                                                                                                                                                                                                                                                                                                                                                                                                                                                                                                                                        
    1725.0000     125.0000   -4975.0000  146.876  0.20000  1.66065E-06  1.10000E-17  1.0000E+00  1.10000E-17  1.0000E+00 -9.7087E-06 -1.2262E-06 -1.7751E-07  0.0000E+00                                                                                                                                                                                                                                                                                                                                                                                                                                                                                                                                                                                                                                                        
    1975.0000     125.0000   -4975.0000  146.876  0.20000  1.66067E-06  1.10000E-17  1.0000E+00  1.10000E-17  1.0000E+00 -9.7087E-06 -1.2262E-06 -1.7751E-07  0.0000E+00                                                                                                                                                                                                                                                                                                                                                                                                                                                                                                                                                                                                                                                        
     125.0000     125.0000   -4725.0000  140.626  0.20000  1.17561E-06  1.10000E-17  1.0000E+00  1.10000E-17  1.0000E+00 -8.9633E-06 -1.2555E-06 -1.5606E-07  0.0000E+00                                                                                                                                                                                                                                                                                                                                                                                                                                                                                                                                                                                                                                                        
     375.0000     125.0000   -4725.0000  140.626  0.20000  1.13755E-06  1.10000E-17  1.0000E+00  1.10000E-17  1.0000E+00 -8.9633E-06 -1.2555E-06 -1.5606E-07  0.0000E+00                                                                                                                                                                                                                                                                                                                                                                                                                                                                                                                                                                                                                                                        
     625.0000     125.0000   -4725.0000  140.626  0.20000  1.05068E-06  1.10000E-17  1.0000E+00  1.10000E-17  1.0000E+00 -8.9633E-06 -1.2555E-06 -1.5606E-07  0.0000E+00                                                                                                                                                                                                                                                                                                                                                                                                                                                                                                                                                                                                                                                        
     875.0000     125.0000   -4725.0000  140.626  0.20000  6.79943E-08  1.10000E-17  1.0000E+00  1.10000E-17  1.0000E+00 -8.9633E-06 -1.2555E-06 -1.5606E-07  0.0000E+00                                                                                                                                                                                                                                                                                                                                                                                                                                                                                                                                                                                                                                                        
    1050.0000     125.0000   -4725.0000  140.605  0.29894 -1.06448E-03  1.10000E-10  1.0000E+00  1.10000E-10  1.0000E+00 -1.3424E-05 -1.8838E-06 -2.3352E-07  0.0000E+00                                                                                                                                                                                                                                                                                                                                                                                                                                                                                                                                                                                                                                                        
    1225.0000     125.0000   -4725.0000  140.626  0.20000  6.79943E-08  1.10000E-17  1.0000E+00  1.10000E-17  1.0000E+00 -8.9633E-06 -1.2555E-06 -1.5606E-07  0.0000E+00                                                                                                                                                                                                                                                                                                                                                                                                                                                                                                                                                                                                                                                        
    1475.0000     125.0000   -4725.0000  140.626  0.20000  1.05068E-06  1.10000E-17  1.0000E+00  1.10000E-17  1.0000E+00 -8.9633E-06 -1.2555E-06 -1.5606E-07  0.0000E+00                                                                                                                                                                                                                                                                                                                                                                                                                                                                                                                                                                                                                                                        
    1725.0000     125.0000   -4725.0000  140.626  0.20000  1.13755E-06  1.10000E-17  1.0000E+00  1.10000E-17  1.0000E+00 -8.9633E-06 -1.2555E-06 -1.5606E-07  0.0000E+00                                                                                                                                                                                                                                                                                                                                                                                                                                                                                                                                                                                                                                                        