Title="TOUGHREACT V3.30-OMP: Mineral Abundances(Total or Changes) and/or Exchanged Species: Change in volume fraction"                                                                                                                                                                                                                                                                                                                                                                                                                                                                                                                                                                                                                                                                                                          
Variables= "X(m)"   "Y(m)"   "Z(m)"       "T(C)"   "Porosity"  "Poros_Chg" "Permx(m^2)"     "Kx/Kx0" "Permz(m^2)"     "Kz/Kz0" "quartz(alpha"     "dolomite"    "kaolinite"      "calcite"                                                                                                                                                                                                                                                                                                                                                                                                                                                                                                                                                                                                                                      
Zone T= "3.16887907E+01 yr" I=      9J=     10K=     24F=Point 
     125.0000     125.0000   -5425.0000  157.822  0.19978 -2.19090E-04  1.10000E-17  1.0000E+00  1.10000E-17  1.0000E+00 -1.1104E-05 -1.1733E-06 -2.2108E-07  0.0000E+00                                                                                                                                                                                                                                                                                                                                                                                                                                                                                                                                                                                                                                                        
     375.0000     125.0000   -5425.0000  157.817  0.19972 -2.81466E-04  1.10000E-17  1.0000E+00  1.10000E-17  1.0000E+00 -1.1103E-05 -1.1733E-06 -2.2106E-07  0.0000E+00                                                                                                                                                                                                                                                                                                                                                                                                                                                                                                                                                                                                                                                        
     625.0000     125.0000   -5425.0000  157.773  0.19954 -4.56278E-04  1.10000E-17  1.0000E+00  1.10000E-17  1.0000E+00 -1.1097E-05 -1.1735E-06 -2.2086E-07  0.0000E+00                                                                                                                                                                                                                                                                                                                                                                                                                                                                                                                                                                                                                                                        
     875.0000     125.0000   -5425.0000  155.180  0.19921 -7.93860E-04  1.10000E-17  1.0000E+00  1.10000E-17  1.0000E+00 -1.0716E-05 -1.1816E-06 -2.0898E-07  0.0000E+00                                                                                                                                                                                                                                                                                                                                                                                                                                                                                                                                                                                                                                                        
    1050.0000     125.0000   -5425.0000   86.751  0.29817 -1.83090E-03  1.10000E-10  1.0000E+00  1.10000E-10  1.0000E+00 -3.3470E-05 -1.5887E-06 -7.0061E-07  0.0000E+00                                                                                                                                                                                                                                                                                                                                                                                                                                                                                                                                                                                                                                                        
    1225.0000     125.0000   -5425.0000  155.180  0.19921 -7.93860E-04  1.10000E-17  1.0000E+00  1.10000E-17  1.0000E+00 -1.0716E-05 -1.1816E-06 -2.0898E-07  0.0000E+00                                                                                                                                                                                                                                                                                                                                                                                                                                                                                                                                                                                                                                                        
    1475.0000     125.0000   -5425.0000  157.773  0.19954 -4.56278E-04  1.10000E-17  1.0000E+00  1.10000E-17  1.0000E+00 -1.1097E-05 -1.1735E-06 -2.2086E-07  0.0000E+00                                                                                                                                                                                                                                                                                                                                                                                                                                                                                                                                                                                                                                                        
    1725.0000     125.0000   -5425.0000  157.817  0.19972 -2.81466E-04  1.10000E-17  1.0000E+00  1.10000E-17  1.0000E+00 -1.1103E-05 -1.1733E-06 -2.2106E-07  0.0000E+00                                                                                                                                                                                                                                                                                                                                                                                                                                                                                                                                                                                                                                                        
    1975.0000     125.0000   -5425.0000  157.822  0.19978 -2.19090E-04  1.10000E-17  1.0000E+00  1.10000E-17  1.0000E+00 -1.1104E-05 -1.1733E-06 -2.2108E-07  0.0000E+00                                                                                                                                                                                                                                                                                                                                                                                                                                                                                                                                                                                                                                                        
     125.0000     125.0000   -5225.0000  153.111  0.19984 -1.59896E-04  1.10000E-17  1.0000E+00  1.10000E-17  1.0000E+00 -1.0491E-05 -1.1964E-06 -2.0158E-07  0.0000E+00                                                                                                                                                                                                                                                                                                                                                                                                                                                                                                                                                                                                                                                        
     375.0000     125.0000   -5225.0000  153.107  0.19978 -2.18364E-04  1.10000E-17  1.0000E+00  1.10000E-17  1.0000E+00 -1.0490E-05 -1.1965E-06 -2.0159E-07  0.0000E+00                                                                                                                                                                                                                                                                                                                                                                                                                                                                                                                                                                                                                                                        
     625.0000     125.0000   -5225.0000  153.066  0.19961 -3.85266E-04  1.10000E-17  1.0000E+00  1.10000E-17  1.0000E+00 -1.0484E-05 -1.1965E-06 -2.0129E-07  0.0000E+00                                                                                                                                                                                                                                                                                                                                                                                                                                                                                                                                                                                                                                                        
     875.0000     125.0000   -5225.0000  150.627  0.19928 -7.18957E-04  1.10000E-17  1.0000E+00  1.10000E-17  1.0000E+00 -1.0140E-05 -1.2042E-06 -1.9086E-07  0.0000E+00                                                                                                                                                                                                                                                                                                                                                                                                                                                                                                                                                                                                                                                        
    1050.0000     125.0000   -5225.0000   87.438  0.29828 -1.72067E-03  1.10000E-10  1.0000E+00  1.10000E-10  1.0000E+00 -3.0361E-05 -1.7497E-06 -5.9282E-07  0.0000E+00                                                                                                                                                                                                                                                                                                                                                                                                                                                                                                                                                                                                                                                        
    1225.0000     125.0000   -5225.0000  150.627  0.19928 -7.18957E-04  1.10000E-17  1.0000E+00  1.10000E-17  1.0000E+00 -1.0140E-05 -1.2042E-06 -1.9086E-07  0.0000E+00                                                                                                                                                                                                                                                                                                                                                                                                                                                                                                                                                                                                                                                        
    1475.0000     125.0000   -5225.0000  153.066  0.19961 -3.85266E-04  1.10000E-17  1.0000E+00  1.10000E-17  1.0000E+00 -1.0484E-05 -1.1965E-06 -2.0129E-07  0.0000E+00                                                                                                                                                                                                                                                                                                                                                                                                                                                                                                                                                                                                                                                        
    1725.0000     125.0000   -5225.0000  153.107  0.19978 -2.18364E-04  1.10000E-17  1.0000E+00  1.10000E-17  1.0000E+00 -1.0490E-05 -1.1965E-06 -2.0159E-07  0.0000E+00                                                                                                                                                                                                                                                                                                                                                                                                                                                                                                                                                                                                                                                        
    1975.0000     125.0000   -5225.0000  153.111  0.19984 -1.59896E-04  1.10000E-17  1.0000E+00  1.10000E-17  1.0000E+00 -1.0491E-05 -1.1964E-06 -2.0158E-07  0.0000E+00                                                                                                                                                                                                                                                                                                                                                                                                                                                                                                                                                                                                                                                        
     125.0000     125.0000   -4975.0000  146.864  0.19976 -2.35275E-04  1.10000E-17  1.0000E+00  1.10000E-17  1.0000E+00 -9.7067E-06 -1.2263E-06 -1.7764E-07  0.0000E+00                                                                                                                                                                                                                                                                                                                                                                                                                                                                                                                                                                                                                                                        
     375.0000     125.0000   -4975.0000  146.861  0.19972 -2.78774E-04  1.10000E-17  1.0000E+00  1.10000E-17  1.0000E+00 -9.7063E-06 -1.2264E-06 -1.7766E-07  0.0000E+00                                                                                                                                                                                                                                                                                                                                                                                                                                                                                                                                                                                                                                                        
     625.0000     125.0000   -4975.0000  146.824  0.19959 -4.07997E-04  1.10000E-17  1.0000E+00  1.10000E-17  1.0000E+00 -9.7010E-06 -1.2265E-06 -1.7746E-07  0.0000E+00                                                                                                                                                                                                                                                                                                                                                                                                                                                                                                                                                                                                                                                        
     875.0000     125.0000   -4975.0000  144.629  0.19932 -6.79908E-04  1.10000E-17  1.0000E+00  1.10000E-17  1.0000E+00 -9.4075E-06 -1.2331E-06 -1.6898E-07  0.0000E+00                                                                                                                                                                                                                                                                                                                                                                                                                                                                                                                                                                                                                                                        
    1050.0000     125.0000   -4975.0000   88.047  0.29842 -1.58214E-03  1.10000E-10  1.0000E+00  1.10000E-10  1.0000E+00 -2.6892E-05 -1.8450E-06 -4.3246E-07  0.0000E+00                                                                                                                                                                                                                                                                                                                                                                                                                                                                                                                                                                                                                                                        
    1225.0000     125.0000   -4975.0000  144.629  0.19932 -6.79908E-04  1.10000E-17  1.0000E+00  1.10000E-17  1.0000E+00 -9.4075E-06 -1.2331E-06 -1.6898E-07  0.0000E+00                                                                                                                                                                                                                                                                                                                                                                                                                                                                                                                                                                                                                                                        
    1475.0000     125.0000   -4975.0000  146.824  0.19959 -4.07997E-04  1.10000E-17  1.0000E+00  1.10000E-17  1.0000E+00 -9.7010E-06 -1.2265E-06 -1.7746E-07  0.0000E+00                                                                                                                                                                                                                                                                                                                                                                                                                                                                                                                                                                                                                                                        
    1725.0000     125.0000   -4975.0000  146.861  0.19972 -2.78774E-04  1.10000E-17  1.0000E+00  1.10000E-17  1.0000E+00 -9.7063E-06 -1.2264E-06 -1.7766E-07  0.0000E+00                                                                                                                                                                                                                                                                                                                                                                                                                                                                                                                                                                                                                                                        
    1975.0000     125.0000   -4975.0000  146.864  0.19976 -2.35275E-04  1.10000E-17  1.0000E+00  1.10000E-17  1.0000E+00 -9.7067E-06 -1.2263E-06 -1.7764E-07  0.0000E+00                                                                                                                                                                                                                                                                                                                                                                                                                                                                                                                                                                                                                                                        
     125.0000     125.0000   -4725.0000  140.601  0.19951 -4.89644E-04  1.10000E-17  1.0000E+00  1.10000E-17  1.0000E+00 -8.9593E-06 -1.2558E-06 -1.5620E-07  0.0000E+00                                                                                                                                                                                                                                                                                                                                                                                                                                                                                                                                                                                                                                                        
     375.0000     125.0000   -4725.0000  140.591  0.19950 -5.04680E-04  1.10000E-17  1.0000E+00  1.10000E-17  1.0000E+00 -8.9578E-06 -1.2559E-06 -1.5622E-07  0.0000E+00                                                                                                                                                                                                                                                                                                                                                                                                                                                                                                                                                                                                                                                        
     625.0000     125.0000   -4725.0000  140.527  0.19944 -5.56191E-04  1.10000E-17  1.0000E+00  1.10000E-17  1.0000E+00 -8.9489E-06 -1.2559E-06 -1.5580E-07  0.0000E+00                                                                                                                                                                                                                                                                                                                                                                                                                                                                                                                                                                                                                                                        
     875.0000     125.0000   -4725.0000  138.392  0.19931 -6.86709E-04  1.10000E-17  1.0000E+00  1.10000E-17  1.0000E+00 -8.6806E-06 -1.2622E-06 -1.4846E-07  0.0000E+00                                                                                                                                                                                                                                                                                                                                                                                                                                                                                                                                                                                                                                                        
    1050.0000     125.0000   -4725.0000   88.632  0.29856 -1.43983E-03  1.10000E-10  1.0000E+00  1.10000E-10  1.0000E+00 -2.4535E-05 -1.8805E-06 -1.7321E-07  0.0000E+00                                                                                                                                                                                                                                                                                                                                                                                                                                                                                                                                                                                                                                                        
    1225.0000     125.0000   -4725.0000  138.392  0.19931 -6.86709E-04  1.10000E-17  1.0000E+00  1.10000E-17  1.0000E+00 -8.6806E-06 -1.2622E-06 -1.4846E-07  0.0000E+00                                                                                                                                                                                                                                                                                                                                                                                                                                                                                                                                                                                                                                                        
    1475.0000     125.0000   -4725.0000  140.527  0.19944 -5.56191E-04  1.10000E-17  1.0000E+00  1.10000E-17  1.0000E+00 -8.9489E-06 -1.2559E-06 -1.5580E-07  0.0000E+00                                                                                                                                                                                                                                                                                                                                                                                                                                                                                                                                                                                                                                                        
    1725.0000     125.0000   -4725.0000  140.591  0.19950 -5.04680E-04  1.10000E-17  1.0000E+00  1.10000E-17  1.0000E+00 -8.9578E-06 -1.2559E-06 -1.5622E-07  0.0000E+00                                                                                                                                                                                                                                                                                                                                                                                                                                                                                                                                                                                                                                                        