Title="TOUGHREACT V3.30-OMP: Mineral Abundances(Total or Changes) and/or Exchanged Species: Change in volume fraction"                                                                                                                                                                                                                                                                                                                                                                                                                                                                                                                                                                                                                                                                                                          
Variables= "X(m)"   "Y(m)"   "Z(m)"       "T(C)"   "Porosity"  "Poros_Chg" "Permx(m^2)"     "Kx/Kx0" "Permz(m^2)"     "Kz/Kz0" "quartz(alpha"     "dolomite"    "kaolinite"      "calcite"                                                                                                                                                                                                                                                                                                                                                                                                                                                                                                                                                                                                                                      
Zone T= "1.00000000E+01 yr" I=      9J=     10K=     24F=Point 
     125.0000     125.0000   -5425.0000  158.028  0.19993 -7.29364E-05  1.10000E-17  1.0000E+00  1.10000E-17  1.0000E+00 -1.1134E-05 -1.1727E-06 -2.2205E-07  0.0000E+00                                                                                                                                                                                                                                                                                                                                                                                                                                                                                                                                                                                                                                                        
     375.0000     125.0000   -5425.0000  158.027  0.19992 -8.29874E-05  1.10000E-17  1.0000E+00  1.10000E-17  1.0000E+00 -1.1134E-05 -1.1727E-06 -2.2204E-07  0.0000E+00                                                                                                                                                                                                                                                                                                                                                                                                                                                                                                                                                                                                                                                        
     625.0000     125.0000   -5425.0000  158.021  0.19984 -1.56765E-04  1.10000E-17  1.0000E+00  1.10000E-17  1.0000E+00 -1.1133E-05 -1.1727E-06 -2.2201E-07  0.0000E+00                                                                                                                                                                                                                                                                                                                                                                                                                                                                                                                                                                                                                                                        
     875.0000     125.0000   -5425.0000  157.424  0.19948 -5.17543E-04  1.10000E-17  1.0000E+00  1.10000E-17  1.0000E+00 -1.1044E-05 -1.1745E-06 -2.1922E-07  0.0000E+00                                                                                                                                                                                                                                                                                                                                                                                                                                                                                                                                                                                                                                                        
    1050.0000     125.0000   -5425.0000   77.915  0.29815 -1.84522E-03  1.10000E-10  1.0000E+00  1.10000E-10  1.0000E+00 -3.2408E-05 -1.5774E-06 -6.8220E-07  0.0000E+00                                                                                                                                                                                                                                                                                                                                                                                                                                                                                                                                                                                                                                                        
    1225.0000     125.0000   -5425.0000  157.424  0.19948 -5.17543E-04  1.10000E-17  1.0000E+00  1.10000E-17  1.0000E+00 -1.1044E-05 -1.1745E-06 -2.1922E-07  0.0000E+00                                                                                                                                                                                                                                                                                                                                                                                                                                                                                                                                                                                                                                                        
    1475.0000     125.0000   -5425.0000  158.021  0.19984 -1.56765E-04  1.10000E-17  1.0000E+00  1.10000E-17  1.0000E+00 -1.1133E-05 -1.1727E-06 -2.2201E-07  0.0000E+00                                                                                                                                                                                                                                                                                                                                                                                                                                                                                                                                                                                                                                                        
    1725.0000     125.0000   -5425.0000  158.027  0.19992 -8.29874E-05  1.10000E-17  1.0000E+00  1.10000E-17  1.0000E+00 -1.1134E-05 -1.1727E-06 -2.2204E-07  0.0000E+00                                                                                                                                                                                                                                                                                                                                                                                                                                                                                                                                                                                                                                                        
    1975.0000     125.0000   -5425.0000  158.028  0.19993 -7.29364E-05  1.10000E-17  1.0000E+00  1.10000E-17  1.0000E+00 -1.1134E-05 -1.1727E-06 -2.2205E-07  0.0000E+00                                                                                                                                                                                                                                                                                                                                                                                                                                                                                                                                                                                                                                                        
     125.0000     125.0000   -5225.0000  153.125  0.19998 -1.83348E-05  1.10000E-17  1.0000E+00  1.10000E-17  1.0000E+00 -1.0493E-05 -1.1963E-06 -2.0144E-07  0.0000E+00                                                                                                                                                                                                                                                                                                                                                                                                                                                                                                                                                                                                                                                        
     375.0000     125.0000   -5225.0000  153.124  0.19997 -2.75367E-05  1.10000E-17  1.0000E+00  1.10000E-17  1.0000E+00 -1.0493E-05 -1.1963E-06 -2.0145E-07  0.0000E+00                                                                                                                                                                                                                                                                                                                                                                                                                                                                                                                                                                                                                                                        
     625.0000     125.0000   -5225.0000  153.118  0.19990 -9.69930E-05  1.10000E-17  1.0000E+00  1.10000E-17  1.0000E+00 -1.0492E-05 -1.1963E-06 -2.0150E-07  0.0000E+00                                                                                                                                                                                                                                                                                                                                                                                                                                                                                                                                                                                                                                                        
     875.0000     125.0000   -5225.0000  152.532  0.19955 -4.49817E-04  1.10000E-17  1.0000E+00  1.10000E-17  1.0000E+00 -1.0408E-05 -1.1981E-06 -1.9887E-07  0.0000E+00                                                                                                                                                                                                                                                                                                                                                                                                                                                                                                                                                                                                                                                        
    1050.0000     125.0000   -5225.0000   78.101  0.29825 -1.74862E-03  1.10000E-10  1.0000E+00  1.10000E-10  1.0000E+00 -2.9434E-05 -1.7409E-06 -5.7669E-07  0.0000E+00                                                                                                                                                                                                                                                                                                                                                                                                                                                                                                                                                                                                                                                        
    1225.0000     125.0000   -5225.0000  152.532  0.19955 -4.49817E-04  1.10000E-17  1.0000E+00  1.10000E-17  1.0000E+00 -1.0408E-05 -1.1981E-06 -1.9887E-07  0.0000E+00                                                                                                                                                                                                                                                                                                                                                                                                                                                                                                                                                                                                                                                        
    1475.0000     125.0000   -5225.0000  153.118  0.19990 -9.69930E-05  1.10000E-17  1.0000E+00  1.10000E-17  1.0000E+00 -1.0492E-05 -1.1963E-06 -2.0150E-07  0.0000E+00                                                                                                                                                                                                                                                                                                                                                                                                                                                                                                                                                                                                                                                        
    1725.0000     125.0000   -5225.0000  153.124  0.19997 -2.75367E-05  1.10000E-17  1.0000E+00  1.10000E-17  1.0000E+00 -1.0493E-05 -1.1963E-06 -2.0145E-07  0.0000E+00                                                                                                                                                                                                                                                                                                                                                                                                                                                                                                                                                                                                                                                        
    1975.0000     125.0000   -5225.0000  153.125  0.19998 -1.83348E-05  1.10000E-17  1.0000E+00  1.10000E-17  1.0000E+00 -1.0493E-05 -1.1963E-06 -2.0144E-07  0.0000E+00                                                                                                                                                                                                                                                                                                                                                                                                                                                                                                                                                                                                                                                        
     125.0000     125.0000   -4975.0000  146.874  0.19995 -4.88223E-05  1.10000E-17  1.0000E+00  1.10000E-17  1.0000E+00 -9.7083E-06 -1.2262E-06 -1.7754E-07  0.0000E+00                                                                                                                                                                                                                                                                                                                                                                                                                                                                                                                                                                                                                                                        
     375.0000     125.0000   -4975.0000  146.873  0.19994 -5.59498E-05  1.10000E-17  1.0000E+00  1.10000E-17  1.0000E+00 -9.7083E-06 -1.2262E-06 -1.7755E-07  0.0000E+00                                                                                                                                                                                                                                                                                                                                                                                                                                                                                                                                                                                                                                                        
     625.0000     125.0000   -4975.0000  146.868  0.19989 -1.12908E-04  1.10000E-17  1.0000E+00  1.10000E-17  1.0000E+00 -9.7075E-06 -1.2263E-06 -1.7758E-07  0.0000E+00                                                                                                                                                                                                                                                                                                                                                                                                                                                                                                                                                                                                                                                        
     875.0000     125.0000   -4975.0000  146.324  0.19958 -4.19228E-04  1.10000E-17  1.0000E+00  1.10000E-17  1.0000E+00 -9.6340E-06 -1.2279E-06 -1.7539E-07  0.0000E+00                                                                                                                                                                                                                                                                                                                                                                                                                                                                                                                                                                                                                                                        
    1050.0000     125.0000   -4975.0000   80.067  0.29839 -1.60855E-03  1.10000E-10  1.0000E+00  1.10000E-10  1.0000E+00 -2.5867E-05 -1.8386E-06 -4.1430E-07  0.0000E+00                                                                                                                                                                                                                                                                                                                                                                                                                                                                                                                                                                                                                                                        
    1225.0000     125.0000   -4975.0000  146.324  0.19958 -4.19228E-04  1.10000E-17  1.0000E+00  1.10000E-17  1.0000E+00 -9.6340E-06 -1.2279E-06 -1.7539E-07  0.0000E+00                                                                                                                                                                                                                                                                                                                                                                                                                                                                                                                                                                                                                                                        
    1475.0000     125.0000   -4975.0000  146.868  0.19989 -1.12908E-04  1.10000E-17  1.0000E+00  1.10000E-17  1.0000E+00 -9.7075E-06 -1.2263E-06 -1.7758E-07  0.0000E+00                                                                                                                                                                                                                                                                                                                                                                                                                                                                                                                                                                                                                                                        
    1725.0000     125.0000   -4975.0000  146.873  0.19994 -5.59498E-05  1.10000E-17  1.0000E+00  1.10000E-17  1.0000E+00 -9.7083E-06 -1.2262E-06 -1.7755E-07  0.0000E+00                                                                                                                                                                                                                                                                                                                                                                                                                                                                                                                                                                                                                                                        
    1975.0000     125.0000   -4975.0000  146.874  0.19995 -4.88223E-05  1.10000E-17  1.0000E+00  1.10000E-17  1.0000E+00 -9.7083E-06 -1.2262E-06 -1.7754E-07  0.0000E+00                                                                                                                                                                                                                                                                                                                                                                                                                                                                                                                                                                                                                                                        
     125.0000     125.0000   -4725.0000  140.610  0.19971 -2.90937E-04  1.10000E-17  1.0000E+00  1.10000E-17  1.0000E+00 -8.9609E-06 -1.2557E-06 -1.5612E-07  0.0000E+00                                                                                                                                                                                                                                                                                                                                                                                                                                                                                                                                                                                                                                                        
     375.0000     125.0000   -4725.0000  140.610  0.19971 -2.93115E-04  1.10000E-17  1.0000E+00  1.10000E-17  1.0000E+00 -8.9609E-06 -1.2557E-06 -1.5612E-07  0.0000E+00                                                                                                                                                                                                                                                                                                                                                                                                                                                                                                                                                                                                                                                        
     625.0000     125.0000   -4725.0000  140.607  0.19968 -3.20813E-04  1.10000E-17  1.0000E+00  1.10000E-17  1.0000E+00 -8.9604E-06 -1.2557E-06 -1.5611E-07  0.0000E+00                                                                                                                                                                                                                                                                                                                                                                                                                                                                                                                                                                                                                                                        
     875.0000     125.0000   -4725.0000  140.111  0.19951 -4.94638E-04  1.10000E-17  1.0000E+00  1.10000E-17  1.0000E+00 -8.8972E-06 -1.2571E-06 -1.5428E-07  0.0000E+00                                                                                                                                                                                                                                                                                                                                                                                                                                                                                                                                                                                                                                                        
    1050.0000     125.0000   -4725.0000   82.737  0.29854 -1.45616E-03  1.10000E-10  1.0000E+00  1.10000E-10  1.0000E+00 -2.3352E-05 -1.8803E-06 -1.5177E-07  0.0000E+00                                                                                                                                                                                                                                                                                                                                                                                                                                                                                                                                                                                                                                                        
    1225.0000     125.0000   -4725.0000  140.111  0.19951 -4.94638E-04  1.10000E-17  1.0000E+00  1.10000E-17  1.0000E+00 -8.8972E-06 -1.2571E-06 -1.5428E-07  0.0000E+00                                                                                                                                                                                                                                                                                                                                                                                                                                                                                                                                                                                                                                                        
    1475.0000     125.0000   -4725.0000  140.607  0.19968 -3.20813E-04  1.10000E-17  1.0000E+00  1.10000E-17  1.0000E+00 -8.9604E-06 -1.2557E-06 -1.5611E-07  0.0000E+00                                                                                                                                                                                                                                                                                                                                                                                                                                                                                                                                                                                                                                                        
    1725.0000     125.0000   -4725.0000  140.610  0.19971 -2.93115E-04  1.10000E-17  1.0000E+00  1.10000E-17  1.0000E+00 -8.9609E-06 -1.2557E-06 -1.5612E-07  0.0000E+00                                                                                                                                                                                                                                                                                                                                                                                                                                                                                                                                                                                                                                                        