Title="TOUGHREACT V3.30-OMP: Mineral Abundances(Total or Changes) and/or Exchanged Species: Change in volume fraction"                                                                                                                                                                                                                                                                                                                                                                                                                                                                                                                                                                                                                                                                                                          
Variables= "X(m)"   "Y(m)"   "Z(m)"       "T(C)"   "Porosity"  "Poros_Chg" "Permx(m^2)"     "Kx/Kx0" "Permz(m^2)"     "Kz/Kz0" "quartz(alpha"     "dolomite"    "kaolinite"      "calcite"                                                                                                                                                                                                                                                                                                                                                                                                                                                                                                                                                                                                                                      
Zone T= "3.16887907E-01 yr" I=      9J=     10K=     24F=Point 
     125.0000     125.0000   -5425.0000  158.123  0.20000 -1.27561E-06  1.10000E-17  1.0000E+00  1.10000E-17  1.0000E+00 -1.1148E-05 -1.1723E-06 -2.2249E-07  0.0000E+00                                                                                                                                                                                                                                                                                                                                                                                                                                                                                                                                                                                                                                                        
     375.0000     125.0000   -5425.0000  158.123  0.20000 -1.27699E-06  1.10000E-17  1.0000E+00  1.10000E-17  1.0000E+00 -1.1148E-05 -1.1723E-06 -2.2249E-07  0.0000E+00                                                                                                                                                                                                                                                                                                                                                                                                                                                                                                                                                                                                                                                        
     625.0000     125.0000   -5425.0000  158.123  0.20000 -1.48925E-06  1.10000E-17  1.0000E+00  1.10000E-17  1.0000E+00 -1.1148E-05 -1.1723E-06 -2.2249E-07  0.0000E+00                                                                                                                                                                                                                                                                                                                                                                                                                                                                                                                                                                                                                                                        
     875.0000     125.0000   -5425.0000  158.121  0.19997 -2.79015E-05  1.10000E-17  1.0000E+00  1.10000E-17  1.0000E+00 -1.1148E-05 -1.1723E-06 -2.2249E-07  0.0000E+00                                                                                                                                                                                                                                                                                                                                                                                                                                                                                                                                                                                                                                                        
    1050.0000     125.0000   -5425.0000  158.028  0.29842 -1.57628E-03  1.10000E-10  1.0000E+00  1.10000E-10  1.0000E+00 -1.6700E-05 -1.7589E-06 -3.3305E-07  0.0000E+00                                                                                                                                                                                                                                                                                                                                                                                                                                                                                                                                                                                                                                                        
    1225.0000     125.0000   -5425.0000  158.121  0.19997 -2.79015E-05  1.10000E-17  1.0000E+00  1.10000E-17  1.0000E+00 -1.1148E-05 -1.1723E-06 -2.2249E-07  0.0000E+00                                                                                                                                                                                                                                                                                                                                                                                                                                                                                                                                                                                                                                                        
    1475.0000     125.0000   -5425.0000  158.123  0.20000 -1.48925E-06  1.10000E-17  1.0000E+00  1.10000E-17  1.0000E+00 -1.1148E-05 -1.1723E-06 -2.2249E-07  0.0000E+00                                                                                                                                                                                                                                                                                                                                                                                                                                                                                                                                                                                                                                                        
    1725.0000     125.0000   -5425.0000  158.123  0.20000 -1.27699E-06  1.10000E-17  1.0000E+00  1.10000E-17  1.0000E+00 -1.1148E-05 -1.1723E-06 -2.2249E-07  0.0000E+00                                                                                                                                                                                                                                                                                                                                                                                                                                                                                                                                                                                                                                                        
    1975.0000     125.0000   -5425.0000  158.123  0.20000 -1.27560E-06  1.10000E-17  1.0000E+00  1.10000E-17  1.0000E+00 -1.1148E-05 -1.1723E-06 -2.2249E-07  0.0000E+00                                                                                                                                                                                                                                                                                                                                                                                                                                                                                                                                                                                                                                                        
     125.0000     125.0000   -5225.0000  153.126  0.20000  1.88751E-06  1.10000E-17  1.0000E+00  1.10000E-17  1.0000E+00 -1.0493E-05 -1.1963E-06 -2.0142E-07  0.0000E+00                                                                                                                                                                                                                                                                                                                                                                                                                                                                                                                                                                                                                                                        
     375.0000     125.0000   -5225.0000  153.126  0.20000  1.88634E-06  1.10000E-17  1.0000E+00  1.10000E-17  1.0000E+00 -1.0493E-05 -1.1963E-06 -2.0142E-07  0.0000E+00                                                                                                                                                                                                                                                                                                                                                                                                                                                                                                                                                                                                                                                        
     625.0000     125.0000   -5225.0000  153.126  0.20000  1.70415E-06  1.10000E-17  1.0000E+00  1.10000E-17  1.0000E+00 -1.0493E-05 -1.1963E-06 -2.0142E-07  0.0000E+00                                                                                                                                                                                                                                                                                                                                                                                                                                                                                                                                                                                                                                                        
     875.0000     125.0000   -5225.0000  153.125  0.19998 -2.15655E-05  1.10000E-17  1.0000E+00  1.10000E-17  1.0000E+00 -1.0493E-05 -1.1963E-06 -2.0142E-07  0.0000E+00                                                                                                                                                                                                                                                                                                                                                                                                                                                                                                                                                                                                                                                        
    1050.0000     125.0000   -5225.0000  153.051  0.29858 -1.42075E-03  1.10000E-10  1.0000E+00  1.10000E-10  1.0000E+00 -1.5719E-05 -1.7948E-06 -3.0151E-07  0.0000E+00                                                                                                                                                                                                                                                                                                                                                                                                                                                                                                                                                                                                                                                        
    1225.0000     125.0000   -5225.0000  153.125  0.19998 -2.15655E-05  1.10000E-17  1.0000E+00  1.10000E-17  1.0000E+00 -1.0493E-05 -1.1963E-06 -2.0142E-07  0.0000E+00                                                                                                                                                                                                                                                                                                                                                                                                                                                                                                                                                                                                                                                        
    1475.0000     125.0000   -5225.0000  153.126  0.20000  1.70415E-06  1.10000E-17  1.0000E+00  1.10000E-17  1.0000E+00 -1.0493E-05 -1.1963E-06 -2.0142E-07  0.0000E+00                                                                                                                                                                                                                                                                                                                                                                                                                                                                                                                                                                                                                                                        
    1725.0000     125.0000   -5225.0000  153.126  0.20000  1.88634E-06  1.10000E-17  1.0000E+00  1.10000E-17  1.0000E+00 -1.0493E-05 -1.1963E-06 -2.0142E-07  0.0000E+00                                                                                                                                                                                                                                                                                                                                                                                                                                                                                                                                                                                                                                                        
    1975.0000     125.0000   -5225.0000  153.126  0.20000  1.88751E-06  1.10000E-17  1.0000E+00  1.10000E-17  1.0000E+00 -1.0493E-05 -1.1963E-06 -2.0142E-07  0.0000E+00                                                                                                                                                                                                                                                                                                                                                                                                                                                                                                                                                                                                                                                        
     125.0000     125.0000   -4975.0000  146.876  0.20000  1.67735E-06  1.10000E-17  1.0000E+00  1.10000E-17  1.0000E+00 -9.7087E-06 -1.2262E-06 -1.7751E-07  0.0000E+00                                                                                                                                                                                                                                                                                                                                                                                                                                                                                                                                                                                                                                                        
     375.0000     125.0000   -4975.0000  146.876  0.20000  1.67572E-06  1.10000E-17  1.0000E+00  1.10000E-17  1.0000E+00 -9.7087E-06 -1.2262E-06 -1.7751E-07  0.0000E+00                                                                                                                                                                                                                                                                                                                                                                                                                                                                                                                                                                                                                                                        
     625.0000     125.0000   -4975.0000  146.876  0.20000  1.52682E-06  1.10000E-17  1.0000E+00  1.10000E-17  1.0000E+00 -9.7087E-06 -1.2262E-06 -1.7751E-07  0.0000E+00                                                                                                                                                                                                                                                                                                                                                                                                                                                                                                                                                                                                                                                        
     875.0000     125.0000   -4975.0000  146.875  0.19998 -1.79916E-05  1.10000E-17  1.0000E+00  1.10000E-17  1.0000E+00 -9.7086E-06 -1.2262E-06 -1.7751E-07  0.0000E+00                                                                                                                                                                                                                                                                                                                                                                                                                                                                                                                                                                                                                                                        
    1050.0000     125.0000   -4975.0000  146.832  0.29877 -1.23468E-03  1.10000E-10  1.0000E+00  1.10000E-10  1.0000E+00 -1.4542E-05 -1.8397E-06 -2.6564E-07  0.0000E+00                                                                                                                                                                                                                                                                                                                                                                                                                                                                                                                                                                                                                                                        
    1225.0000     125.0000   -4975.0000  146.875  0.19998 -1.79916E-05  1.10000E-17  1.0000E+00  1.10000E-17  1.0000E+00 -9.7086E-06 -1.2262E-06 -1.7751E-07  0.0000E+00                                                                                                                                                                                                                                                                                                                                                                                                                                                                                                                                                                                                                                                        
    1475.0000     125.0000   -4975.0000  146.876  0.20000  1.52682E-06  1.10000E-17  1.0000E+00  1.10000E-17  1.0000E+00 -9.7087E-06 -1.2262E-06 -1.7751E-07  0.0000E+00                                                                                                                                                                                                                                                                                                                                                                                                                                                                                                                                                                                                                                                        
    1725.0000     125.0000   -4975.0000  146.876  0.20000  1.67572E-06  1.10000E-17  1.0000E+00  1.10000E-17  1.0000E+00 -9.7087E-06 -1.2262E-06 -1.7751E-07  0.0000E+00                                                                                                                                                                                                                                                                                                                                                                                                                                                                                                                                                                                                                                                        
    1975.0000     125.0000   -4975.0000  146.876  0.20000  1.67735E-06  1.10000E-17  1.0000E+00  1.10000E-17  1.0000E+00 -9.7087E-06 -1.2262E-06 -1.7751E-07  0.0000E+00                                                                                                                                                                                                                                                                                                                                                                                                                                                                                                                                                                                                                                                        
     125.0000     125.0000   -4725.0000  140.625  0.19999 -1.26601E-05  1.10000E-17  1.0000E+00  1.10000E-17  1.0000E+00 -8.9631E-06 -1.2555E-06 -1.5606E-07  0.0000E+00                                                                                                                                                                                                                                                                                                                                                                                                                                                                                                                                                                                                                                                        
     375.0000     125.0000   -4725.0000  140.625  0.19999 -1.27249E-05  1.10000E-17  1.0000E+00  1.10000E-17  1.0000E+00 -8.9631E-06 -1.2555E-06 -1.5606E-07  0.0000E+00                                                                                                                                                                                                                                                                                                                                                                                                                                                                                                                                                                                                                                                        
     625.0000     125.0000   -4725.0000  140.625  0.19999 -1.29739E-05  1.10000E-17  1.0000E+00  1.10000E-17  1.0000E+00 -8.9631E-06 -1.2555E-06 -1.5606E-07  0.0000E+00                                                                                                                                                                                                                                                                                                                                                                                                                                                                                                                                                                                                                                                        
     875.0000     125.0000   -4725.0000  140.624  0.19997 -2.88874E-05  1.10000E-17  1.0000E+00  1.10000E-17  1.0000E+00 -8.9630E-06 -1.2556E-06 -1.5606E-07  0.0000E+00                                                                                                                                                                                                                                                                                                                                                                                                                                                                                                                                                                                                                                                        
    1050.0000     125.0000   -4725.0000  140.608  0.29894 -1.05781E-03  1.10000E-10  1.0000E+00  1.10000E-10  1.0000E+00 -1.3424E-05 -1.8838E-06 -2.3350E-07  0.0000E+00                                                                                                                                                                                                                                                                                                                                                                                                                                                                                                                                                                                                                                                        
    1225.0000     125.0000   -4725.0000  140.624  0.19997 -2.88874E-05  1.10000E-17  1.0000E+00  1.10000E-17  1.0000E+00 -8.9630E-06 -1.2556E-06 -1.5606E-07  0.0000E+00                                                                                                                                                                                                                                                                                                                                                                                                                                                                                                                                                                                                                                                        
    1475.0000     125.0000   -4725.0000  140.625  0.19999 -1.29739E-05  1.10000E-17  1.0000E+00  1.10000E-17  1.0000E+00 -8.9631E-06 -1.2555E-06 -1.5606E-07  0.0000E+00                                                                                                                                                                                                                                                                                                                                                                                                                                                                                                                                                                                                                                                        
    1725.0000     125.0000   -4725.0000  140.625  0.19999 -1.27249E-05  1.10000E-17  1.0000E+00  1.10000E-17  1.0000E+00 -8.9631E-06 -1.2555E-06 -1.5606E-07  0.0000E+00                                                                                                                                                                                                                                                                                                                                                                                                                                                                                                                                                                                                                                                        