Title="TOUGHREACT V3.30-OMP: Mineral Abundances(Total or Changes) and/or Exchanged Species: Change in volume fraction"                                                                                                                                                                                                                                                                                                                                                                                                                                                                                                                                                                                                                                                                                                          
Variables= "X(m)"   "Y(m)"   "Z(m)"       "T(C)"   "Porosity"  "Poros_Chg" "Permx(m^2)"     "Kx/Kx0" "Permz(m^2)"     "Kz/Kz0" "quartz(alpha"     "dolomite"    "kaolinite"      "calcite"                                                                                                                                                                                                                                                                                                                                                                                                                                                                                                                                                                                                                                      
Zone T= "0.00000000E+00 yr" I=      9 J=     10 K=     24 F=Point 
     125.0000     125.0000   -5425.0000  158.125  0.20000 -1.64035E-14  1.10000E-17  1.0000E+00  1.10000E-17  1.0000E+00  0.0000E+00  0.0000E+00  0.0000E+00  0.0000E+00                                                                                                                                                                                                                                                                                                                                                                                                                                                                                                                                                                                                                                                        
     375.0000     125.0000   -5425.0000  158.125  0.20000 -1.64035E-14  1.10000E-17  1.0000E+00  1.10000E-17  1.0000E+00  0.0000E+00  0.0000E+00  0.0000E+00  0.0000E+00                                                                                                                                                                                                                                                                                                                                                                                                                                                                                                                                                                                                                                                        
     625.0000     125.0000   -5425.0000  158.125  0.20000 -1.64035E-14  1.10000E-17  1.0000E+00  1.10000E-17  1.0000E+00  0.0000E+00  0.0000E+00  0.0000E+00  0.0000E+00                                                                                                                                                                                                                                                                                                                                                                                                                                                                                                                                                                                                                                                        
     875.0000     125.0000   -5425.0000  158.125  0.20000 -1.64313E-14  1.10000E-17  1.0000E+00  1.10000E-17  1.0000E+00  0.0000E+00  0.0000E+00  0.0000E+00  0.0000E+00                                                                                                                                                                                                                                                                                                                                                                                                                                                                                                                                                                                                                                                        
    1050.0000     125.0000   -5425.0000  158.125  0.30000 -1.41187E-07  1.10000E-10  1.0000E+00  1.10000E-10  1.0000E+00  0.0000E+00  0.0000E+00  0.0000E+00  0.0000E+00                                                                                                                                                                                                                                                                                                                                                                                                                                                                                                                                                                                                                                                        
    1225.0000     125.0000   -5425.0000  158.125  0.20000 -1.64313E-14  1.10000E-17  1.0000E+00  1.10000E-17  1.0000E+00  0.0000E+00  0.0000E+00  0.0000E+00  0.0000E+00                                                                                                                                                                                                                                                                                                                                                                                                                                                                                                                                                                                                                                                        
    1475.0000     125.0000   -5425.0000  158.125  0.20000 -1.64035E-14  1.10000E-17  1.0000E+00  1.10000E-17  1.0000E+00  0.0000E+00  0.0000E+00  0.0000E+00  0.0000E+00                                                                                                                                                                                                                                                                                                                                                                                                                                                                                                                                                                                                                                                        
    1725.0000     125.0000   -5425.0000  158.125  0.20000 -1.64035E-14  1.10000E-17  1.0000E+00  1.10000E-17  1.0000E+00  0.0000E+00  0.0000E+00  0.0000E+00  0.0000E+00                                                                                                                                                                                                                                                                                                                                                                                                                                                                                                                                                                                                                                                        
    1975.0000     125.0000   -5425.0000  158.125  0.20000 -1.64035E-14  1.10000E-17  1.0000E+00  1.10000E-17  1.0000E+00  0.0000E+00  0.0000E+00  0.0000E+00  0.0000E+00                                                                                                                                                                                                                                                                                                                                                                                                                                                                                                                                                                                                                                                        
     125.0000     125.0000   -5225.0000  153.125  0.20000  5.82867E-16  1.10000E-17  1.0000E+00  1.10000E-17  1.0000E+00  0.0000E+00  0.0000E+00  0.0000E+00  0.0000E+00                                                                                                                                                                                                                                                                                                                                                                                                                                                                                                                                                                                                                                                        
     375.0000     125.0000   -5225.0000  153.125  0.20000  5.82867E-16  1.10000E-17  1.0000E+00  1.10000E-17  1.0000E+00  0.0000E+00  0.0000E+00  0.0000E+00  0.0000E+00                                                                                                                                                                                                                                                                                                                                                                                                                                                                                                                                                                                                                                                        
     625.0000     125.0000   -5225.0000  153.125  0.20000  5.82867E-16  1.10000E-17  1.0000E+00  1.10000E-17  1.0000E+00  0.0000E+00  0.0000E+00  0.0000E+00  0.0000E+00                                                                                                                                                                                                                                                                                                                                                                                                                                                                                                                                                                                                                                                        
     875.0000     125.0000   -5225.0000  153.125  0.20000  5.82867E-16  1.10000E-17  1.0000E+00  1.10000E-17  1.0000E+00  0.0000E+00  0.0000E+00  0.0000E+00  0.0000E+00                                                                                                                                                                                                                                                                                                                                                                                                                                                                                                                                                                                                                                                        
    1050.0000     125.0000   -5225.0000  153.125  0.30000  5.76035E-09  1.10000E-10  1.0000E+00  1.10000E-10  1.0000E+00  0.0000E+00  0.0000E+00  0.0000E+00  0.0000E+00                                                                                                                                                                                                                                                                                                                                                                                                                                                                                                                                                                                                                                                        
    1225.0000     125.0000   -5225.0000  153.125  0.20000  5.82867E-16  1.10000E-17  1.0000E+00  1.10000E-17  1.0000E+00  0.0000E+00  0.0000E+00  0.0000E+00  0.0000E+00                                                                                                                                                                                                                                                                                                                                                                                                                                                                                                                                                                                                                                                        
    1475.0000     125.0000   -5225.0000  153.125  0.20000  5.82867E-16  1.10000E-17  1.0000E+00  1.10000E-17  1.0000E+00  0.0000E+00  0.0000E+00  0.0000E+00  0.0000E+00                                                                                                                                                                                                                                                                                                                                                                                                                                                                                                                                                                                                                                                        
    1725.0000     125.0000   -5225.0000  153.125  0.20000  5.82867E-16  1.10000E-17  1.0000E+00  1.10000E-17  1.0000E+00  0.0000E+00  0.0000E+00  0.0000E+00  0.0000E+00                                                                                                                                                                                                                                                                                                                                                                                                                                                                                                                                                                                                                                                        
    1975.0000     125.0000   -5225.0000  153.125  0.20000  5.82867E-16  1.10000E-17  1.0000E+00  1.10000E-17  1.0000E+00  0.0000E+00  0.0000E+00  0.0000E+00  0.0000E+00                                                                                                                                                                                                                                                                                                                                                                                                                                                                                                                                                                                                                                                        
     125.0000     125.0000   -4975.0000  146.875  0.20000  6.38378E-16  1.10000E-17  1.0000E+00  1.10000E-17  1.0000E+00  0.0000E+00  0.0000E+00  0.0000E+00  0.0000E+00                                                                                                                                                                                                                                                                                                                                                                                                                                                                                                                                                                                                                                                        
     375.0000     125.0000   -4975.0000  146.875  0.20000  6.38378E-16  1.10000E-17  1.0000E+00  1.10000E-17  1.0000E+00  0.0000E+00  0.0000E+00  0.0000E+00  0.0000E+00                                                                                                                                                                                                                                                                                                                                                                                                                                                                                                                                                                                                                                                        
     625.0000     125.0000   -4975.0000  146.875  0.20000  6.38378E-16  1.10000E-17  1.0000E+00  1.10000E-17  1.0000E+00  0.0000E+00  0.0000E+00  0.0000E+00  0.0000E+00                                                                                                                                                                                                                                                                                                                                                                                                                                                                                                                                                                                                                                                        
     875.0000     125.0000   -4975.0000  146.875  0.20000  6.38378E-16  1.10000E-17  1.0000E+00  1.10000E-17  1.0000E+00  0.0000E+00  0.0000E+00  0.0000E+00  0.0000E+00                                                                                                                                                                                                                                                                                                                                                                                                                                                                                                                                                                                                                                                        
    1050.0000     125.0000   -4975.0000  146.875  0.30000  6.57608E-09  1.10000E-10  1.0000E+00  1.10000E-10  1.0000E+00  0.0000E+00  0.0000E+00  0.0000E+00  0.0000E+00                                                                                                                                                                                                                                                                                                                                                                                                                                                                                                                                                                                                                                                        
    1225.0000     125.0000   -4975.0000  146.875  0.20000  6.38378E-16  1.10000E-17  1.0000E+00  1.10000E-17  1.0000E+00  0.0000E+00  0.0000E+00  0.0000E+00  0.0000E+00                                                                                                                                                                                                                                                                                                                                                                                                                                                                                                                                                                                                                                                        
    1475.0000     125.0000   -4975.0000  146.875  0.20000  6.38378E-16  1.10000E-17  1.0000E+00  1.10000E-17  1.0000E+00  0.0000E+00  0.0000E+00  0.0000E+00  0.0000E+00                                                                                                                                                                                                                                                                                                                                                                                                                                                                                                                                                                                                                                                        
    1725.0000     125.0000   -4975.0000  146.875  0.20000  6.38378E-16  1.10000E-17  1.0000E+00  1.10000E-17  1.0000E+00  0.0000E+00  0.0000E+00  0.0000E+00  0.0000E+00                                                                                                                                                                                                                                                                                                                                                                                                                                                                                                                                                                                                                                                        
    1975.0000     125.0000   -4975.0000  146.875  0.20000  6.38378E-16  1.10000E-17  1.0000E+00  1.10000E-17  1.0000E+00  0.0000E+00  0.0000E+00  0.0000E+00  0.0000E+00                                                                                                                                                                                                                                                                                                                                                                                                                                                                                                                                                                                                                                                        
     125.0000     125.0000   -4725.0000  140.625  0.20000 -2.05391E-15  1.10000E-17  1.0000E+00  1.10000E-17  1.0000E+00  0.0000E+00  0.0000E+00  0.0000E+00  0.0000E+00                                                                                                                                                                                                                                                                                                                                                                                                                                                                                                                                                                                                                                                        
     375.0000     125.0000   -4725.0000  140.625  0.20000 -2.05391E-15  1.10000E-17  1.0000E+00  1.10000E-17  1.0000E+00  0.0000E+00  0.0000E+00  0.0000E+00  0.0000E+00                                                                                                                                                                                                                                                                                                                                                                                                                                                                                                                                                                                                                                                        
     625.0000     125.0000   -4725.0000  140.625  0.20000 -2.05391E-15  1.10000E-17  1.0000E+00  1.10000E-17  1.0000E+00  0.0000E+00  0.0000E+00  0.0000E+00  0.0000E+00                                                                                                                                                                                                                                                                                                                                                                                                                                                                                                                                                                                                                                                        
     875.0000     125.0000   -4725.0000  140.625  0.20000 -2.02616E-15  1.10000E-17  1.0000E+00  1.10000E-17  1.0000E+00  0.0000E+00  0.0000E+00  0.0000E+00  0.0000E+00                                                                                                                                                                                                                                                                                                                                                                                                                                                                                                                                                                                                                                                        
    1050.0000     125.0000   -4725.0000  140.625  0.30000  5.80432E-09  1.10000E-10  1.0000E+00  1.10000E-10  1.0000E+00  0.0000E+00  0.0000E+00  0.0000E+00  0.0000E+00                                                                                                                                                                                                                                                                                                                                                                                                                                                                                                                                                                                                                                                        
    1225.0000     125.0000   -4725.0000  140.625  0.20000 -2.02616E-15  1.10000E-17  1.0000E+00  1.10000E-17  1.0000E+00  0.0000E+00  0.0000E+00  0.0000E+00  0.0000E+00                                                                                                                                                                                                                                                                                                                                                                                                                                                                                                                                                                                                                                                        
    1475.0000     125.0000   -4725.0000  140.625  0.20000 -2.05391E-15  1.10000E-17  1.0000E+00  1.10000E-17  1.0000E+00  0.0000E+00  0.0000E+00  0.0000E+00  0.0000E+00                                                                                                                                                                                                                                                                                                                                                                                                                                                                                                                                                                                                                                                        
    1725.0000     125.0000   -4725.0000  140.625  0.20000 -2.05391E-15  1.10000E-17  1.0000E+00  1.10000E-17  1.0000E+00  0.0000E+00  0.0000E+00  0.0000E+00  0.0000E+00                                                                                                                                                                                                                                                                                                                                                                                                                                                                                                                                                                                                                                                        