Title="TOUGHREACT V3.30-OMP: Mineral Abundances(Total or Changes) and/or Exchanged Species: Change in volume fraction"                                                                                                                                                                                                                                                                                                                                                                                                                                                                                                                                                                                                                                                                                                          
Variables= "X(m)"   "Y(m)"   "Z(m)"       "T(C)"   "Porosity"  "Poros_Chg" "Permx(m^2)"     "Kx/Kx0" "Permz(m^2)"     "Kz/Kz0" "quartz(alpha"     "dolomite"    "kaolinite"      "calcite"                                                                                                                                                                                                                                                                                                                                                                                                                                                                                                                                                                                                                                      
Zone T= "3.16887907E+02 yr" I=      9J=     10K=     24F=Point 
     125.0000     125.0000   -5425.0000  155.706  0.19869 -1.30677E-03  1.10000E-17  1.0000E+00  1.10000E-17  1.0000E+00 -1.0797E-05 -1.1802E-06 -2.1142E-07  0.0000E+00                                                                                                                                                                                                                                                                                                                                                                                                                                                                                                                                                                                                                                                        
     375.0000     125.0000   -5425.0000  155.476  0.19868 -1.31687E-03  1.10000E-17  1.0000E+00  1.10000E-17  1.0000E+00 -1.0764E-05 -1.1809E-06 -2.1039E-07  0.0000E+00                                                                                                                                                                                                                                                                                                                                                                                                                                                                                                                                                                                                                                                        
     625.0000     125.0000   -5425.0000  152.970  0.19866 -1.33880E-03  1.10000E-17  1.0000E+00  1.10000E-17  1.0000E+00 -1.0406E-05 -1.1888E-06 -1.9945E-07  0.0000E+00                                                                                                                                                                                                                                                                                                                                                                                                                                                                                                                                                                                                                                                        
     875.0000     125.0000   -5425.0000  134.210  0.19861 -1.39450E-03  1.10000E-17  1.0000E+00  1.10000E-17  1.0000E+00 -8.0036E-06 -1.2433E-06 -1.3179E-07  0.0000E+00                                                                                                                                                                                                                                                                                                                                                                                                                                                                                                                                                                                                                                                        
    1050.0000     125.0000   -5425.0000   81.390  0.29780 -2.19618E-03  1.10000E-10  1.0000E+00  1.10000E-10  1.0000E+00 -5.2407E-05 -1.8426E-06 -1.0466E-06  0.0000E+00                                                                                                                                                                                                                                                                                                                                                                                                                                                                                                                                                                                                                                                        
    1225.0000     125.0000   -5425.0000  134.210  0.19861 -1.39450E-03  1.10000E-17  1.0000E+00  1.10000E-17  1.0000E+00 -8.0036E-06 -1.2433E-06 -1.3179E-07  0.0000E+00                                                                                                                                                                                                                                                                                                                                                                                                                                                                                                                                                                                                                                                        
    1475.0000     125.0000   -5425.0000  152.970  0.19866 -1.33880E-03  1.10000E-17  1.0000E+00  1.10000E-17  1.0000E+00 -1.0406E-05 -1.1888E-06 -1.9945E-07  0.0000E+00                                                                                                                                                                                                                                                                                                                                                                                                                                                                                                                                                                                                                                                        
    1725.0000     125.0000   -5425.0000  155.476  0.19868 -1.31687E-03  1.10000E-17  1.0000E+00  1.10000E-17  1.0000E+00 -1.0764E-05 -1.1809E-06 -2.1039E-07  0.0000E+00                                                                                                                                                                                                                                                                                                                                                                                                                                                                                                                                                                                                                                                        
    1975.0000     125.0000   -5425.0000  155.706  0.19869 -1.30677E-03  1.10000E-17  1.0000E+00  1.10000E-17  1.0000E+00 -1.0797E-05 -1.1802E-06 -2.1142E-07  0.0000E+00                                                                                                                                                                                                                                                                                                                                                                                                                                                                                                                                                                                                                                                        
     125.0000     125.0000   -5225.0000  152.653  0.19881 -1.19111E-03  1.10000E-17  1.0000E+00  1.10000E-17  1.0000E+00 -1.0426E-05 -1.1984E-06 -2.0041E-07  0.0000E+00                                                                                                                                                                                                                                                                                                                                                                                                                                                                                                                                                                                                                                                        
     375.0000     125.0000   -5225.0000  152.427  0.19880 -1.20243E-03  1.10000E-17  1.0000E+00  1.10000E-17  1.0000E+00 -1.0394E-05 -1.1991E-06 -1.9934E-07  0.0000E+00                                                                                                                                                                                                                                                                                                                                                                                                                                                                                                                                                                                                                                                        
     625.0000     125.0000   -5225.0000  150.017  0.19877 -1.22921E-03  1.10000E-17  1.0000E+00  1.10000E-17  1.0000E+00 -1.0059E-05 -1.2063E-06 -1.8857E-07  0.0000E+00                                                                                                                                                                                                                                                                                                                                                                                                                                                                                                                                                                                                                                                        
     875.0000     125.0000   -5225.0000  131.973  0.19870 -1.30172E-03  1.10000E-17  1.0000E+00  1.10000E-17  1.0000E+00 -7.7903E-06 -1.2583E-06 -1.2604E-07  0.0000E+00                                                                                                                                                                                                                                                                                                                                                                                                                                                                                                                                                                                                                                                        
    1050.0000     125.0000   -5225.0000   80.847  0.29789 -2.10708E-03  1.10000E-10  1.0000E+00  1.10000E-10  1.0000E+00 -4.4812E-05 -2.0446E-06 -8.5542E-07  0.0000E+00                                                                                                                                                                                                                                                                                                                                                                                                                                                                                                                                                                                                                                                        
    1225.0000     125.0000   -5225.0000  131.973  0.19870 -1.30172E-03  1.10000E-17  1.0000E+00  1.10000E-17  1.0000E+00 -7.7903E-06 -1.2583E-06 -1.2604E-07  0.0000E+00                                                                                                                                                                                                                                                                                                                                                                                                                                                                                                                                                                                                                                                        
    1475.0000     125.0000   -5225.0000  150.017  0.19877 -1.22921E-03  1.10000E-17  1.0000E+00  1.10000E-17  1.0000E+00 -1.0059E-05 -1.2063E-06 -1.8857E-07  0.0000E+00                                                                                                                                                                                                                                                                                                                                                                                                                                                                                                                                                                                                                                                        
    1725.0000     125.0000   -5225.0000  152.427  0.19880 -1.20243E-03  1.10000E-17  1.0000E+00  1.10000E-17  1.0000E+00 -1.0394E-05 -1.1991E-06 -1.9934E-07  0.0000E+00                                                                                                                                                                                                                                                                                                                                                                                                                                                                                                                                                                                                                                                        
    1975.0000     125.0000   -5225.0000  152.653  0.19881 -1.19111E-03  1.10000E-17  1.0000E+00  1.10000E-17  1.0000E+00 -1.0426E-05 -1.1984E-06 -2.0041E-07  0.0000E+00                                                                                                                                                                                                                                                                                                                                                                                                                                                                                                                                                                                                                                                        
     125.0000     125.0000   -4975.0000  146.512  0.19893 -1.07363E-03  1.10000E-17  1.0000E+00  1.10000E-17  1.0000E+00 -9.6574E-06 -1.2279E-06 -1.7703E-07  0.0000E+00                                                                                                                                                                                                                                                                                                                                                                                                                                                                                                                                                                                                                                                        
     375.0000     125.0000   -4975.0000  146.219  0.19891 -1.08622E-03  1.10000E-17  1.0000E+00  1.10000E-17  1.0000E+00 -9.6179E-06 -1.2288E-06 -1.7581E-07  0.0000E+00                                                                                                                                                                                                                                                                                                                                                                                                                                                                                                                                                                                                                                                        
     625.0000     125.0000   -4975.0000  143.873  0.19888 -1.11753E-03  1.10000E-17  1.0000E+00  1.10000E-17  1.0000E+00 -9.3068E-06 -1.2357E-06 -1.6632E-07  0.0000E+00                                                                                                                                                                                                                                                                                                                                                                                                                                                                                                                                                                                                                                                        
     875.0000     125.0000   -4975.0000  127.293  0.19880 -1.20169E-03  1.10000E-17  1.0000E+00  1.10000E-17  1.0000E+00 -7.3213E-06 -1.2811E-06 -1.1399E-07  0.0000E+00                                                                                                                                                                                                                                                                                                                                                                                                                                                                                                                                                                                                                                                        
    1050.0000     125.0000   -4975.0000   80.617  0.29801 -1.98894E-03  1.10000E-10  1.0000E+00  1.10000E-10  1.0000E+00 -3.5839E-05 -2.0464E-06 -5.9488E-07  1.1049E-08                                                                                                                                                                                                                                                                                                                                                                                                                                                                                                                                                                                                                                                        
    1225.0000     125.0000   -4975.0000  127.293  0.19880 -1.20169E-03  1.10000E-17  1.0000E+00  1.10000E-17  1.0000E+00 -7.3213E-06 -1.2811E-06 -1.1399E-07  0.0000E+00                                                                                                                                                                                                                                                                                                                                                                                                                                                                                                                                                                                                                                                        
    1475.0000     125.0000   -4975.0000  143.873  0.19888 -1.11753E-03  1.10000E-17  1.0000E+00  1.10000E-17  1.0000E+00 -9.3068E-06 -1.2357E-06 -1.6632E-07  0.0000E+00                                                                                                                                                                                                                                                                                                                                                                                                                                                                                                                                                                                                                                                        
    1725.0000     125.0000   -4975.0000  146.219  0.19891 -1.08622E-03  1.10000E-17  1.0000E+00  1.10000E-17  1.0000E+00 -9.6179E-06 -1.2288E-06 -1.7581E-07  0.0000E+00                                                                                                                                                                                                                                                                                                                                                                                                                                                                                                                                                                                                                                                        
    1975.0000     125.0000   -4975.0000  146.512  0.19893 -1.07363E-03  1.10000E-17  1.0000E+00  1.10000E-17  1.0000E+00 -9.6574E-06 -1.2279E-06 -1.7703E-07  0.0000E+00                                                                                                                                                                                                                                                                                                                                                                                                                                                                                                                                                                                                                                                        
     125.0000     125.0000   -4725.0000  137.579  0.19902 -9.84265E-04  1.10000E-17  1.0000E+00  1.10000E-17  1.0000E+00 -8.5767E-06 -1.2649E-06 -1.4591E-07  0.0000E+00                                                                                                                                                                                                                                                                                                                                                                                                                                                                                                                                                                                                                                                        
     375.0000     125.0000   -4725.0000  136.544  0.19900 -9.97908E-04  1.10000E-17  1.0000E+00  1.10000E-17  1.0000E+00 -8.4507E-06 -1.2678E-06 -1.4253E-07  0.0000E+00                                                                                                                                                                                                                                                                                                                                                                                                                                                                                                                                                                                                                                                        
     625.0000     125.0000   -4725.0000  133.220  0.19897 -1.03096E-03  1.10000E-17  1.0000E+00  1.10000E-17  1.0000E+00 -8.0561E-06 -1.2768E-06 -1.3197E-07  0.0000E+00                                                                                                                                                                                                                                                                                                                                                                                                                                                                                                                                                                                                                                                        
     875.0000     125.0000   -4725.0000  118.101  0.19888 -1.11620E-03  1.10000E-17  1.0000E+00  1.10000E-17  1.0000E+00 -6.4196E-06 -1.3121E-06 -9.1961E-08  0.0000E+00                                                                                                                                                                                                                                                                                                                                                                                                                                                                                                                                                                                                                                                        
    1050.0000     125.0000   -4725.0000   80.611  0.29813 -1.86631E-03  1.10000E-10  1.0000E+00  1.10000E-10  1.0000E+00 -2.6881E-05 -2.0072E-06 -2.0693E-07  1.1483E-07                                                                                                                                                                                                                                                                                                                                                                                                                                                                                                                                                                                                                                                        
    1225.0000     125.0000   -4725.0000  118.101  0.19888 -1.11620E-03  1.10000E-17  1.0000E+00  1.10000E-17  1.0000E+00 -6.4196E-06 -1.3121E-06 -9.1961E-08  0.0000E+00                                                                                                                                                                                                                                                                                                                                                                                                                                                                                                                                                                                                                                                        
    1475.0000     125.0000   -4725.0000  133.220  0.19897 -1.03096E-03  1.10000E-17  1.0000E+00  1.10000E-17  1.0000E+00 -8.0561E-06 -1.2768E-06 -1.3197E-07  0.0000E+00                                                                                                                                                                                                                                                                                                                                                                                                                                                                                                                                                                                                                                                        
    1725.0000     125.0000   -4725.0000  136.544  0.19900 -9.97908E-04  1.10000E-17  1.0000E+00  1.10000E-17  1.0000E+00 -8.4507E-06 -1.2678E-06 -1.4253E-07  0.0000E+00                                                                                                                                                                                                                                                                                                                                                                                                                                                                                                                                                                                                                                                        