Title="TOUGHREACT V3.30-OMP: Mineral Abundances(Total or Changes) and/or Exchanged Species: Change in volume fraction"                                                                                                                                                                                                                                                                                                                                                                                                                                                                                                                                                                                                                                                                                                          
Variables= "X(m)"   "Y(m)"   "Z(m)"       "T(C)"   "Porosity"  "Poros_Chg" "Permx(m^2)"     "Kx/Kx0" "Permz(m^2)"     "Kz/Kz0" "quartz(alpha"     "dolomite"    "kaolinite"      "calcite"                                                                                                                                                                                                                                                                                                                                                                                                                                                                                                                                                                                                                                      
Zone T= "3.16887907E-02 yr" I=      9 J=     10 K=     24 F=Point 
     125.0000     125.0000   -5425.0000  158.126  0.20000  1.61123E-06  1.10000E-17  1.0000E+00  1.10000E-17  1.0000E+00 -1.1148E-05 -1.1723E-06 -2.2250E-07  0.0000E+00                                                                                                                                                                                                                                                                                                                                                                                                                                                                                                                                                                                                                                                        
     375.0000     125.0000   -5425.0000  158.126  0.20000  1.61123E-06  1.10000E-17  1.0000E+00  1.10000E-17  1.0000E+00 -1.1148E-05 -1.1723E-06 -2.2250E-07  0.0000E+00                                                                                                                                                                                                                                                                                                                                                                                                                                                                                                                                                                                                                                                        
     625.0000     125.0000   -5425.0000  158.126  0.20000  1.60917E-06  1.10000E-17  1.0000E+00  1.10000E-17  1.0000E+00 -1.1148E-05 -1.1723E-06 -2.2250E-07  0.0000E+00                                                                                                                                                                                                                                                                                                                                                                                                                                                                                                                                                                                                                                                        
     875.0000     125.0000   -5425.0000  158.126  0.20000 -1.08904E-06  1.10000E-17  1.0000E+00  1.10000E-17  1.0000E+00 -1.1148E-05 -1.1723E-06 -2.2250E-07  0.0000E+00                                                                                                                                                                                                                                                                                                                                                                                                                                                                                                                                                                                                                                                        
    1050.0000     125.0000   -5425.0000  158.030  0.29842 -1.58181E-03  1.10000E-10  1.0000E+00  1.10000E-10  1.0000E+00 -1.6701E-05 -1.7589E-06 -3.3307E-07  0.0000E+00                                                                                                                                                                                                                                                                                                                                                                                                                                                                                                                                                                                                                                                        
    1225.0000     125.0000   -5425.0000  158.126  0.20000 -1.08904E-06  1.10000E-17  1.0000E+00  1.10000E-17  1.0000E+00 -1.1148E-05 -1.1723E-06 -2.2250E-07  0.0000E+00                                                                                                                                                                                                                                                                                                                                                                                                                                                                                                                                                                                                                                                        
    1475.0000     125.0000   -5425.0000  158.126  0.20000  1.60917E-06  1.10000E-17  1.0000E+00  1.10000E-17  1.0000E+00 -1.1148E-05 -1.1723E-06 -2.2250E-07  0.0000E+00                                                                                                                                                                                                                                                                                                                                                                                                                                                                                                                                                                                                                                                        
    1725.0000     125.0000   -5425.0000  158.126  0.20000  1.61123E-06  1.10000E-17  1.0000E+00  1.10000E-17  1.0000E+00 -1.1148E-05 -1.1723E-06 -2.2250E-07  0.0000E+00                                                                                                                                                                                                                                                                                                                                                                                                                                                                                                                                                                                                                                                        
    1975.0000     125.0000   -5425.0000  158.126  0.20000  1.61123E-06  1.10000E-17  1.0000E+00  1.10000E-17  1.0000E+00 -1.1148E-05 -1.1723E-06 -2.2250E-07  0.0000E+00                                                                                                                                                                                                                                                                                                                                                                                                                                                                                                                                                                                                                                                        
     125.0000     125.0000   -5225.0000  153.126  0.20000  1.81770E-06  1.10000E-17  1.0000E+00  1.10000E-17  1.0000E+00 -1.0493E-05 -1.1963E-06 -2.0142E-07  0.0000E+00                                                                                                                                                                                                                                                                                                                                                                                                                                                                                                                                                                                                                                                        
     375.0000     125.0000   -5225.0000  153.126  0.20000  1.81770E-06  1.10000E-17  1.0000E+00  1.10000E-17  1.0000E+00 -1.0493E-05 -1.1963E-06 -2.0142E-07  0.0000E+00                                                                                                                                                                                                                                                                                                                                                                                                                                                                                                                                                                                                                                                        
     625.0000     125.0000   -5225.0000  153.126  0.20000  1.81595E-06  1.10000E-17  1.0000E+00  1.10000E-17  1.0000E+00 -1.0493E-05 -1.1963E-06 -2.0142E-07  0.0000E+00                                                                                                                                                                                                                                                                                                                                                                                                                                                                                                                                                                                                                                                        
     875.0000     125.0000   -5225.0000  153.126  0.20000 -5.47927E-07  1.10000E-17  1.0000E+00  1.10000E-17  1.0000E+00 -1.0493E-05 -1.1963E-06 -2.0142E-07  0.0000E+00                                                                                                                                                                                                                                                                                                                                                                                                                                                                                                                                                                                                                                                        
    1050.0000     125.0000   -5225.0000  153.050  0.29857 -1.42630E-03  1.10000E-10  1.0000E+00  1.10000E-10  1.0000E+00 -1.5719E-05 -1.7948E-06 -3.0152E-07  0.0000E+00                                                                                                                                                                                                                                                                                                                                                                                                                                                                                                                                                                                                                                                        
    1225.0000     125.0000   -5225.0000  153.126  0.20000 -5.47927E-07  1.10000E-17  1.0000E+00  1.10000E-17  1.0000E+00 -1.0493E-05 -1.1963E-06 -2.0142E-07  0.0000E+00                                                                                                                                                                                                                                                                                                                                                                                                                                                                                                                                                                                                                                                        
    1475.0000     125.0000   -5225.0000  153.126  0.20000  1.81595E-06  1.10000E-17  1.0000E+00  1.10000E-17  1.0000E+00 -1.0493E-05 -1.1963E-06 -2.0142E-07  0.0000E+00                                                                                                                                                                                                                                                                                                                                                                                                                                                                                                                                                                                                                                                        
    1725.0000     125.0000   -5225.0000  153.126  0.20000  1.81770E-06  1.10000E-17  1.0000E+00  1.10000E-17  1.0000E+00 -1.0493E-05 -1.1963E-06 -2.0142E-07  0.0000E+00                                                                                                                                                                                                                                                                                                                                                                                                                                                                                                                                                                                                                                                        
    1975.0000     125.0000   -5225.0000  153.126  0.20000  1.81770E-06  1.10000E-17  1.0000E+00  1.10000E-17  1.0000E+00 -1.0493E-05 -1.1963E-06 -2.0142E-07  0.0000E+00                                                                                                                                                                                                                                                                                                                                                                                                                                                                                                                                                                                                                                                        
     125.0000     125.0000   -4975.0000  146.876  0.20000  1.66642E-06  1.10000E-17  1.0000E+00  1.10000E-17  1.0000E+00 -9.7087E-06 -1.2262E-06 -1.7751E-07  0.0000E+00                                                                                                                                                                                                                                                                                                                                                                                                                                                                                                                                                                                                                                                        
     375.0000     125.0000   -4975.0000  146.876  0.20000  1.66637E-06  1.10000E-17  1.0000E+00  1.10000E-17  1.0000E+00 -9.7087E-06 -1.2262E-06 -1.7751E-07  0.0000E+00                                                                                                                                                                                                                                                                                                                                                                                                                                                                                                                                                                                                                                                        
     625.0000     125.0000   -4975.0000  146.876  0.20000  1.66486E-06  1.10000E-17  1.0000E+00  1.10000E-17  1.0000E+00 -9.7087E-06 -1.2262E-06 -1.7751E-07  0.0000E+00                                                                                                                                                                                                                                                                                                                                                                                                                                                                                                                                                                                                                                                        
     875.0000     125.0000   -4975.0000  146.876  0.20000 -3.12762E-07  1.10000E-17  1.0000E+00  1.10000E-17  1.0000E+00 -9.7087E-06 -1.2262E-06 -1.7751E-07  0.0000E+00                                                                                                                                                                                                                                                                                                                                                                                                                                                                                                                                                                                                                                                        
    1050.0000     125.0000   -4975.0000  146.830  0.29876 -1.24024E-03  1.10000E-10  1.0000E+00  1.10000E-10  1.0000E+00 -1.4542E-05 -1.8397E-06 -2.6565E-07  0.0000E+00                                                                                                                                                                                                                                                                                                                                                                                                                                                                                                                                                                                                                                                        
    1225.0000     125.0000   -4975.0000  146.876  0.20000 -3.12762E-07  1.10000E-17  1.0000E+00  1.10000E-17  1.0000E+00 -9.7087E-06 -1.2262E-06 -1.7751E-07  0.0000E+00                                                                                                                                                                                                                                                                                                                                                                                                                                                                                                                                                                                                                                                        
    1475.0000     125.0000   -4975.0000  146.876  0.20000  1.66486E-06  1.10000E-17  1.0000E+00  1.10000E-17  1.0000E+00 -9.7087E-06 -1.2262E-06 -1.7751E-07  0.0000E+00                                                                                                                                                                                                                                                                                                                                                                                                                                                                                                                                                                                                                                                        
    1725.0000     125.0000   -4975.0000  146.876  0.20000  1.66637E-06  1.10000E-17  1.0000E+00  1.10000E-17  1.0000E+00 -9.7087E-06 -1.2262E-06 -1.7751E-07  0.0000E+00                                                                                                                                                                                                                                                                                                                                                                                                                                                                                                                                                                                                                                                        
    1975.0000     125.0000   -4975.0000  146.876  0.20000  1.66642E-06  1.10000E-17  1.0000E+00  1.10000E-17  1.0000E+00 -9.7087E-06 -1.2262E-06 -1.7751E-07  0.0000E+00                                                                                                                                                                                                                                                                                                                                                                                                                                                                                                                                                                                                                                                        
     125.0000     125.0000   -4725.0000  140.626  0.20000  5.56233E-07  1.10000E-17  1.0000E+00  1.10000E-17  1.0000E+00 -8.9633E-06 -1.2555E-06 -1.5606E-07  0.0000E+00                                                                                                                                                                                                                                                                                                                                                                                                                                                                                                                                                                                                                                                        
     375.0000     125.0000   -4725.0000  140.626  0.20000  5.01946E-07  1.10000E-17  1.0000E+00  1.10000E-17  1.0000E+00 -8.9633E-06 -1.2555E-06 -1.5606E-07  0.0000E+00                                                                                                                                                                                                                                                                                                                                                                                                                                                                                                                                                                                                                                                        
     625.0000     125.0000   -4725.0000  140.626  0.20000  3.83678E-07  1.10000E-17  1.0000E+00  1.10000E-17  1.0000E+00 -8.9633E-06 -1.2555E-06 -1.5606E-07  0.0000E+00                                                                                                                                                                                                                                                                                                                                                                                                                                                                                                                                                                                                                                                        
     875.0000     125.0000   -4725.0000  140.626  0.20000 -1.43677E-06  1.10000E-17  1.0000E+00  1.10000E-17  1.0000E+00 -8.9633E-06 -1.2555E-06 -1.5606E-07  0.0000E+00                                                                                                                                                                                                                                                                                                                                                                                                                                                                                                                                                                                                                                                        
    1050.0000     125.0000   -4725.0000  140.605  0.29894 -1.06338E-03  1.10000E-10  1.0000E+00  1.10000E-10  1.0000E+00 -1.3424E-05 -1.8838E-06 -2.3352E-07  0.0000E+00                                                                                                                                                                                                                                                                                                                                                                                                                                                                                                                                                                                                                                                        
    1225.0000     125.0000   -4725.0000  140.626  0.20000 -1.43677E-06  1.10000E-17  1.0000E+00  1.10000E-17  1.0000E+00 -8.9633E-06 -1.2555E-06 -1.5606E-07  0.0000E+00                                                                                                                                                                                                                                                                                                                                                                                                                                                                                                                                                                                                                                                        
    1475.0000     125.0000   -4725.0000  140.626  0.20000  3.83678E-07  1.10000E-17  1.0000E+00  1.10000E-17  1.0000E+00 -8.9633E-06 -1.2555E-06 -1.5606E-07  0.0000E+00                                                                                                                                                                                                                                                                                                                                                                                                                                                                                                                                                                                                                                                        
    1725.0000     125.0000   -4725.0000  140.626  0.20000  5.01946E-07  1.10000E-17  1.0000E+00  1.10000E-17  1.0000E+00 -8.9633E-06 -1.2555E-06 -1.5606E-07  0.0000E+00                                                                                                                                                                                                                                                                                                                                                                                                                                                                                                                                                                                                                                                        