Title="TOUGHREACT V3.30-OMP: Mineral Abundances(Total or Changes) and/or Exchanged Species: Change in volume fraction"                                                                                                                                                                                                                                                                                                                                                                                                                                                                                                                                                                                                                                                                                                          
Variables= "X(m)"   "Y(m)"   "Z(m)"       "T(C)"   "Porosity"  "Poros_Chg" "Permx(m^2)"     "Kx/Kx0" "Permz(m^2)"     "Kz/Kz0" "quartz(alpha"     "dolomite"    "kaolinite"      "calcite"                                                                                                                                                                                                                                                                                                                                                                                                                                                                                                                                                                                                                                      
Zone T= "3.16887907E+03 yr" I=      9 J=     10 K=     24 F=Point 
     125.0000     125.0000   -5425.0000  131.498  0.19791 -2.08678E-03  1.10000E-17  1.0000E+00  1.10000E-17  1.0000E+00 -7.6485E-06 -1.2530E-06 -1.2319E-07  0.0000E+00                                                                                                                                                                                                                                                                                                                                                                                                                                                                                                                                                                                                                                                        
     375.0000     125.0000   -5425.0000  125.660  0.19790 -2.09527E-03  1.10000E-17  1.0000E+00  1.10000E-17  1.0000E+00 -7.0107E-06 -1.2668E-06 -1.0753E-07  0.0000E+00                                                                                                                                                                                                                                                                                                                                                                                                                                                                                                                                                                                                                                                        
     625.0000     125.0000   -5425.0000  113.987  0.19789 -2.10972E-03  1.10000E-17  1.0000E+00  1.10000E-17  1.0000E+00 -5.8688E-06 -1.2884E-06 -8.1159E-08  0.0000E+00                                                                                                                                                                                                                                                                                                                                                                                                                                                                                                                                                                                                                                                        
     875.0000     125.0000   -5425.0000   97.371  0.19788 -2.12310E-03  1.10000E-17  1.0000E+00  1.10000E-17  1.0000E+00 -4.4696E-06 -1.2977E-06 -5.1231E-08  0.0000E+00                                                                                                                                                                                                                                                                                                                                                                                                                                                                                                                                                                                                                                                        
    1050.0000     125.0000   -5425.0000   84.043  0.29687 -3.13080E-03  1.10000E-10  1.0000E+00  1.10000E-10  1.0000E+00 -9.5111E-05 -3.3306E-06 -1.7960E-06  0.0000E+00                                                                                                                                                                                                                                                                                                                                                                                                                                                                                                                                                                                                                                                        
    1225.0000     125.0000   -5425.0000   97.371  0.19788 -2.12310E-03  1.10000E-17  1.0000E+00  1.10000E-17  1.0000E+00 -4.4696E-06 -1.2977E-06 -5.1231E-08  0.0000E+00                                                                                                                                                                                                                                                                                                                                                                                                                                                                                                                                                                                                                                                        
    1475.0000     125.0000   -5425.0000  113.987  0.19789 -2.10972E-03  1.10000E-17  1.0000E+00  1.10000E-17  1.0000E+00 -5.8688E-06 -1.2884E-06 -8.1159E-08  0.0000E+00                                                                                                                                                                                                                                                                                                                                                                                                                                                                                                                                                                                                                                                        
    1725.0000     125.0000   -5425.0000  125.660  0.19790 -2.09527E-03  1.10000E-17  1.0000E+00  1.10000E-17  1.0000E+00 -7.0107E-06 -1.2668E-06 -1.0753E-07  0.0000E+00                                                                                                                                                                                                                                                                                                                                                                                                                                                                                                                                                                                                                                                        
    1975.0000     125.0000   -5425.0000  131.498  0.19791 -2.08678E-03  1.10000E-17  1.0000E+00  1.10000E-17  1.0000E+00 -7.6485E-06 -1.2530E-06 -1.2319E-07  0.0000E+00                                                                                                                                                                                                                                                                                                                                                                                                                                                                                                                                                                                                                                                        
     125.0000     125.0000   -5225.0000  129.079  0.19801 -1.98749E-03  1.10000E-17  1.0000E+00  1.10000E-17  1.0000E+00 -7.4401E-06 -1.2675E-06 -1.1878E-07  0.0000E+00                                                                                                                                                                                                                                                                                                                                                                                                                                                                                                                                                                                                                                                        
     375.0000     125.0000   -5225.0000  123.538  0.19800 -1.99967E-03  1.10000E-17  1.0000E+00  1.10000E-17  1.0000E+00 -6.8419E-06 -1.2801E-06 -1.0422E-07  0.0000E+00                                                                                                                                                                                                                                                                                                                                                                                                                                                                                                                                                                                                                                                        
     625.0000     125.0000   -5225.0000  112.456  0.19798 -2.02154E-03  1.10000E-17  1.0000E+00  1.10000E-17  1.0000E+00 -5.7638E-06 -1.2996E-06 -7.8816E-08  0.0000E+00                                                                                                                                                                                                                                                                                                                                                                                                                                                                                                                                                                                                                                                        
     875.0000     125.0000   -5225.0000   96.667  0.19795 -2.04637E-03  1.10000E-17  1.0000E+00  1.10000E-17  1.0000E+00 -4.4333E-06 -1.3084E-06 -5.0570E-08  0.0000E+00                                                                                                                                                                                                                                                                                                                                                                                                                                                                                                                                                                                                                                                        
    1050.0000     125.0000   -5225.0000   83.920  0.29693 -3.07261E-03  1.10000E-10  1.0000E+00  1.10000E-10  1.0000E+00 -5.0268E-05 -3.6909E-06 -9.1010E-07  2.3509E-07                                                                                                                                                                                                                                                                                                                                                                                                                                                                                                                                                                                                                                                        
    1225.0000     125.0000   -5225.0000   96.667  0.19795 -2.04637E-03  1.10000E-17  1.0000E+00  1.10000E-17  1.0000E+00 -4.4333E-06 -1.3084E-06 -5.0570E-08  0.0000E+00                                                                                                                                                                                                                                                                                                                                                                                                                                                                                                                                                                                                                                                        
    1475.0000     125.0000   -5225.0000  112.456  0.19798 -2.02154E-03  1.10000E-17  1.0000E+00  1.10000E-17  1.0000E+00 -5.7638E-06 -1.2996E-06 -7.8816E-08  0.0000E+00                                                                                                                                                                                                                                                                                                                                                                                                                                                                                                                                                                                                                                                        
    1725.0000     125.0000   -5225.0000  123.538  0.19800 -1.99967E-03  1.10000E-17  1.0000E+00  1.10000E-17  1.0000E+00 -6.8419E-06 -1.2801E-06 -1.0422E-07  0.0000E+00                                                                                                                                                                                                                                                                                                                                                                                                                                                                                                                                                                                                                                                        
    1975.0000     125.0000   -5225.0000  129.079  0.19801 -1.98749E-03  1.10000E-17  1.0000E+00  1.10000E-17  1.0000E+00 -7.4401E-06 -1.2675E-06 -1.1878E-07  0.0000E+00                                                                                                                                                                                                                                                                                                                                                                                                                                                                                                                                                                                                                                                        
     125.0000     125.0000   -4975.0000  121.042  0.19812 -1.88324E-03  1.10000E-17  1.0000E+00  1.10000E-17  1.0000E+00 -6.6511E-06 -1.2955E-06 -9.9492E-08  0.0000E+00                                                                                                                                                                                                                                                                                                                                                                                                                                                                                                                                                                                                                                                        
     375.0000     125.0000   -4975.0000  116.492  0.19810 -1.89682E-03  1.10000E-17  1.0000E+00  1.10000E-17  1.0000E+00 -6.1883E-06 -1.3043E-06 -8.8801E-08  0.0000E+00                                                                                                                                                                                                                                                                                                                                                                                                                                                                                                                                                                                                                                                        
     625.0000     125.0000   -4975.0000  107.397  0.19808 -1.92218E-03  1.10000E-17  1.0000E+00  1.10000E-17  1.0000E+00 -5.3386E-06 -1.3175E-06 -6.9481E-08  0.0000E+00                                                                                                                                                                                                                                                                                                                                                                                                                                                                                                                                                                                                                                                        
     875.0000     125.0000   -4975.0000   94.449  0.19805 -1.95449E-03  1.10000E-17  1.0000E+00  1.10000E-17  1.0000E+00 -4.2815E-06 -1.3220E-06 -4.7671E-08  0.0000E+00                                                                                                                                                                                                                                                                                                                                                                                                                                                                                                                                                                                                                                                        
    1050.0000     125.0000   -4975.0000   83.999  0.29701 -2.99357E-03  1.10000E-10  1.0000E+00  1.10000E-10  1.0000E+00  1.7697E-06 -5.5707E-06  1.6419E-07  4.2886E-06                                                                                                                                                                                                                                                                                                                                                                                                                                                                                                                                                                                                                                                        
    1225.0000     125.0000   -4975.0000   94.449  0.19805 -1.95449E-03  1.10000E-17  1.0000E+00  1.10000E-17  1.0000E+00 -4.2815E-06 -1.3220E-06 -4.7671E-08  0.0000E+00                                                                                                                                                                                                                                                                                                                                                                                                                                                                                                                                                                                                                                                        
    1475.0000     125.0000   -4975.0000  107.397  0.19808 -1.92218E-03  1.10000E-17  1.0000E+00  1.10000E-17  1.0000E+00 -5.3386E-06 -1.3175E-06 -6.9481E-08  0.0000E+00                                                                                                                                                                                                                                                                                                                                                                                                                                                                                                                                                                                                                                                        
    1725.0000     125.0000   -4975.0000  116.492  0.19810 -1.89682E-03  1.10000E-17  1.0000E+00  1.10000E-17  1.0000E+00 -6.1883E-06 -1.3043E-06 -8.8801E-08  0.0000E+00                                                                                                                                                                                                                                                                                                                                                                                                                                                                                                                                                                                                                                                        
    1975.0000     125.0000   -4975.0000  121.042  0.19812 -1.88324E-03  1.10000E-17  1.0000E+00  1.10000E-17  1.0000E+00 -6.6511E-06 -1.2955E-06 -9.9492E-08  0.0000E+00                                                                                                                                                                                                                                                                                                                                                                                                                                                                                                                                                                                                                                                        
     125.0000     125.0000   -4725.0000  108.318  0.19820 -1.79688E-03  1.10000E-17  1.0000E+00  1.10000E-17  1.0000E+00 -5.5663E-06 -1.3259E-06 -6.9163E-08  0.0000E+00                                                                                                                                                                                                                                                                                                                                                                                                                                                                                                                                                                                                                                                        
     375.0000     125.0000   -4725.0000  105.365  0.19819 -1.80923E-03  1.10000E-17  1.0000E+00  1.10000E-17  1.0000E+00 -5.2741E-06 -1.3285E-06 -6.4962E-08  0.0000E+00                                                                                                                                                                                                                                                                                                                                                                                                                                                                                                                                                                                                                                                        
     625.0000     125.0000   -4725.0000   99.428  0.19817 -1.83342E-03  1.10000E-17  1.0000E+00  1.10000E-17  1.0000E+00 -4.7463E-06 -1.3334E-06 -5.5056E-08  0.0000E+00                                                                                                                                                                                                                                                                                                                                                                                                                                                                                                                                                                                                                                                        
     875.0000     125.0000   -4725.0000   90.995  0.19813 -1.86673E-03  1.10000E-17  1.0000E+00  1.10000E-17  1.0000E+00 -4.0652E-06 -1.3339E-06 -4.2865E-08  0.0000E+00                                                                                                                                                                                                                                                                                                                                                                                                                                                                                                                                                                                                                                                        
    1050.0000     125.0000   -4725.0000   84.220  0.29710 -2.89725E-03  1.10000E-10  1.0000E+00  1.10000E-10  1.0000E+00  4.0477E-05 -7.3017E-06  1.1785E-06  8.3374E-06                                                                                                                                                                                                                                                                                                                                                                                                                                                                                                                                                                                                                                                        
    1225.0000     125.0000   -4725.0000   90.995  0.19813 -1.86673E-03  1.10000E-17  1.0000E+00  1.10000E-17  1.0000E+00 -4.0652E-06 -1.3339E-06 -4.2865E-08  0.0000E+00                                                                                                                                                                                                                                                                                                                                                                                                                                                                                                                                                                                                                                                        
    1475.0000     125.0000   -4725.0000   99.428  0.19817 -1.83342E-03  1.10000E-17  1.0000E+00  1.10000E-17  1.0000E+00 -4.7463E-06 -1.3334E-06 -5.5056E-08  0.0000E+00                                                                                                                                                                                                                                                                                                                                                                                                                                                                                                                                                                                                                                                        
    1725.0000     125.0000   -4725.0000  105.365  0.19819 -1.80923E-03  1.10000E-17  1.0000E+00  1.10000E-17  1.0000E+00 -5.2741E-06 -1.3285E-06 -6.4962E-08  0.0000E+00                                                                                                                                                                                                                                                                                                                                                                                                                                                                                                                                                                                                                                                        