Title="TOUGHREACT V3.30-OMP: Mineral Abundances(Total or Changes) and/or Exchanged Species: Change in volume fraction"                                                                                                                                                                                                                                                                                                                                                                                                                                                                                                                                                                                                                                                                                                          
Variables= "X(m)"   "Y(m)"   "Z(m)"       "T(C)"   "Porosity"  "Poros_Chg" "Permx(m^2)"     "Kx/Kx0" "Permz(m^2)"     "Kz/Kz0" "quartz(alpha"     "dolomite"    "kaolinite"      "calcite"                                                                                                                                                                                                                                                                                                                                                                                                                                                                                                                                                                                                                                      
Zone T= "1.58443954E-09 yr" I=      9 J=     10 K=     24 F=Point 
     125.0000     125.0000   -5425.0000  158.125  0.20001  1.25425E-05  1.10000E-17  1.0000E+00  1.10000E-17  1.0000E+00 -1.1148E-05 -1.1723E-06 -2.2248E-07  0.0000E+00                                                                                                                                                                                                                                                                                                                                                                                                                                                                                                                                                                                                                                                        
     375.0000     125.0000   -5425.0000  158.125  0.20001  1.25425E-05  1.10000E-17  1.0000E+00  1.10000E-17  1.0000E+00 -1.1148E-05 -1.1723E-06 -2.2248E-07  0.0000E+00                                                                                                                                                                                                                                                                                                                                                                                                                                                                                                                                                                                                                                                        
     625.0000     125.0000   -5425.0000  158.125  0.20001  1.25425E-05  1.10000E-17  1.0000E+00  1.10000E-17  1.0000E+00 -1.1148E-05 -1.1723E-06 -2.2248E-07  0.0000E+00                                                                                                                                                                                                                                                                                                                                                                                                                                                                                                                                                                                                                                                        
     875.0000     125.0000   -5425.0000  158.125  0.20001  1.25425E-05  1.10000E-17  1.0000E+00  1.10000E-17  1.0000E+00 -1.1148E-05 -1.1723E-06 -2.2248E-07  0.0000E+00                                                                                                                                                                                                                                                                                                                                                                                                                                                                                                                                                                                                                                                        
    1050.0000     125.0000   -5425.0000  158.125  0.30002  1.86725E-05  1.10000E-10  1.0000E+00  1.10000E-10  1.0000E+00 -1.6722E-05 -1.7584E-06 -3.3372E-07  0.0000E+00                                                                                                                                                                                                                                                                                                                                                                                                                                                                                                                                                                                                                                                        
    1225.0000     125.0000   -5425.0000  158.125  0.20001  1.25425E-05  1.10000E-17  1.0000E+00  1.10000E-17  1.0000E+00 -1.1148E-05 -1.1723E-06 -2.2248E-07  0.0000E+00                                                                                                                                                                                                                                                                                                                                                                                                                                                                                                                                                                                                                                                        
    1475.0000     125.0000   -5425.0000  158.125  0.20001  1.25425E-05  1.10000E-17  1.0000E+00  1.10000E-17  1.0000E+00 -1.1148E-05 -1.1723E-06 -2.2248E-07  0.0000E+00                                                                                                                                                                                                                                                                                                                                                                                                                                                                                                                                                                                                                                                        
    1725.0000     125.0000   -5425.0000  158.125  0.20001  1.25425E-05  1.10000E-17  1.0000E+00  1.10000E-17  1.0000E+00 -1.1148E-05 -1.1723E-06 -2.2248E-07  0.0000E+00                                                                                                                                                                                                                                                                                                                                                                                                                                                                                                                                                                                                                                                        
    1975.0000     125.0000   -5425.0000  158.125  0.20001  1.25425E-05  1.10000E-17  1.0000E+00  1.10000E-17  1.0000E+00 -1.1148E-05 -1.1723E-06 -2.2248E-07  0.0000E+00                                                                                                                                                                                                                                                                                                                                                                                                                                                                                                                                                                                                                                                        
     125.0000     125.0000   -5225.0000  153.125  0.20001  1.18902E-05  1.10000E-17  1.0000E+00  1.10000E-17  1.0000E+00 -1.0493E-05 -1.1962E-06 -2.0141E-07  0.0000E+00                                                                                                                                                                                                                                                                                                                                                                                                                                                                                                                                                                                                                                                        
     375.0000     125.0000   -5225.0000  153.125  0.20001  1.18902E-05  1.10000E-17  1.0000E+00  1.10000E-17  1.0000E+00 -1.0493E-05 -1.1962E-06 -2.0141E-07  0.0000E+00                                                                                                                                                                                                                                                                                                                                                                                                                                                                                                                                                                                                                                                        
     625.0000     125.0000   -5225.0000  153.125  0.20001  1.18902E-05  1.10000E-17  1.0000E+00  1.10000E-17  1.0000E+00 -1.0493E-05 -1.1962E-06 -2.0141E-07  0.0000E+00                                                                                                                                                                                                                                                                                                                                                                                                                                                                                                                                                                                                                                                        
     875.0000     125.0000   -5225.0000  153.125  0.20001  1.18902E-05  1.10000E-17  1.0000E+00  1.10000E-17  1.0000E+00 -1.0493E-05 -1.1962E-06 -2.0141E-07  0.0000E+00                                                                                                                                                                                                                                                                                                                                                                                                                                                                                                                                                                                                                                                        
    1050.0000     125.0000   -5225.0000  153.125  0.30002  1.78411E-05  1.10000E-10  1.0000E+00  1.10000E-10  1.0000E+00 -1.5739E-05 -1.7943E-06 -3.0211E-07  0.0000E+00                                                                                                                                                                                                                                                                                                                                                                                                                                                                                                                                                                                                                                                        
    1225.0000     125.0000   -5225.0000  153.125  0.20001  1.18902E-05  1.10000E-17  1.0000E+00  1.10000E-17  1.0000E+00 -1.0493E-05 -1.1962E-06 -2.0141E-07  0.0000E+00                                                                                                                                                                                                                                                                                                                                                                                                                                                                                                                                                                                                                                                        
    1475.0000     125.0000   -5225.0000  153.125  0.20001  1.18902E-05  1.10000E-17  1.0000E+00  1.10000E-17  1.0000E+00 -1.0493E-05 -1.1962E-06 -2.0141E-07  0.0000E+00                                                                                                                                                                                                                                                                                                                                                                                                                                                                                                                                                                                                                                                        
    1725.0000     125.0000   -5225.0000  153.125  0.20001  1.18902E-05  1.10000E-17  1.0000E+00  1.10000E-17  1.0000E+00 -1.0493E-05 -1.1962E-06 -2.0141E-07  0.0000E+00                                                                                                                                                                                                                                                                                                                                                                                                                                                                                                                                                                                                                                                        
    1975.0000     125.0000   -5225.0000  153.125  0.20001  1.18902E-05  1.10000E-17  1.0000E+00  1.10000E-17  1.0000E+00 -1.0493E-05 -1.1962E-06 -2.0141E-07  0.0000E+00                                                                                                                                                                                                                                                                                                                                                                                                                                                                                                                                                                                                                                                        
     125.0000     125.0000   -4975.0000  146.875  0.20001  1.11119E-05  1.10000E-17  1.0000E+00  1.10000E-17  1.0000E+00 -9.7083E-06 -1.2261E-06 -1.7750E-07  0.0000E+00                                                                                                                                                                                                                                                                                                                                                                                                                                                                                                                                                                                                                                                        
     375.0000     125.0000   -4975.0000  146.875  0.20001  1.11119E-05  1.10000E-17  1.0000E+00  1.10000E-17  1.0000E+00 -9.7083E-06 -1.2261E-06 -1.7750E-07  0.0000E+00                                                                                                                                                                                                                                                                                                                                                                                                                                                                                                                                                                                                                                                        
     625.0000     125.0000   -4975.0000  146.875  0.20001  1.11119E-05  1.10000E-17  1.0000E+00  1.10000E-17  1.0000E+00 -9.7083E-06 -1.2261E-06 -1.7750E-07  0.0000E+00                                                                                                                                                                                                                                                                                                                                                                                                                                                                                                                                                                                                                                                        
     875.0000     125.0000   -4975.0000  146.875  0.20001  1.11119E-05  1.10000E-17  1.0000E+00  1.10000E-17  1.0000E+00 -9.7083E-06 -1.2261E-06 -1.7750E-07  0.0000E+00                                                                                                                                                                                                                                                                                                                                                                                                                                                                                                                                                                                                                                                        
    1050.0000     125.0000   -4975.0000  146.875  0.30002  1.66745E-05  1.10000E-10  1.0000E+00  1.10000E-10  1.0000E+00 -1.4562E-05 -1.8392E-06 -2.6625E-07  0.0000E+00                                                                                                                                                                                                                                                                                                                                                                                                                                                                                                                                                                                                                                                        
    1225.0000     125.0000   -4975.0000  146.875  0.20001  1.11119E-05  1.10000E-17  1.0000E+00  1.10000E-17  1.0000E+00 -9.7083E-06 -1.2261E-06 -1.7750E-07  0.0000E+00                                                                                                                                                                                                                                                                                                                                                                                                                                                                                                                                                                                                                                                        
    1475.0000     125.0000   -4975.0000  146.875  0.20001  1.11119E-05  1.10000E-17  1.0000E+00  1.10000E-17  1.0000E+00 -9.7083E-06 -1.2261E-06 -1.7750E-07  0.0000E+00                                                                                                                                                                                                                                                                                                                                                                                                                                                                                                                                                                                                                                                        
    1725.0000     125.0000   -4975.0000  146.875  0.20001  1.11119E-05  1.10000E-17  1.0000E+00  1.10000E-17  1.0000E+00 -9.7083E-06 -1.2261E-06 -1.7750E-07  0.0000E+00                                                                                                                                                                                                                                                                                                                                                                                                                                                                                                                                                                                                                                                        
    1975.0000     125.0000   -4975.0000  146.875  0.20001  1.11119E-05  1.10000E-17  1.0000E+00  1.10000E-17  1.0000E+00 -9.7083E-06 -1.2261E-06 -1.7750E-07  0.0000E+00                                                                                                                                                                                                                                                                                                                                                                                                                                                                                                                                                                                                                                                        
     125.0000     125.0000   -4725.0000  140.625  0.20001  1.03745E-05  1.10000E-17  1.0000E+00  1.10000E-17  1.0000E+00 -8.9629E-06 -1.2555E-06 -1.5605E-07  0.0000E+00                                                                                                                                                                                                                                                                                                                                                                                                                                                                                                                                                                                                                                                        
     375.0000     125.0000   -4725.0000  140.625  0.20001  1.03745E-05  1.10000E-17  1.0000E+00  1.10000E-17  1.0000E+00 -8.9629E-06 -1.2555E-06 -1.5605E-07  0.0000E+00                                                                                                                                                                                                                                                                                                                                                                                                                                                                                                                                                                                                                                                        
     625.0000     125.0000   -4725.0000  140.625  0.20001  1.03745E-05  1.10000E-17  1.0000E+00  1.10000E-17  1.0000E+00 -8.9629E-06 -1.2555E-06 -1.5605E-07  0.0000E+00                                                                                                                                                                                                                                                                                                                                                                                                                                                                                                                                                                                                                                                        
     875.0000     125.0000   -4725.0000  140.625  0.20001  1.03745E-05  1.10000E-17  1.0000E+00  1.10000E-17  1.0000E+00 -8.9629E-06 -1.2555E-06 -1.5605E-07  0.0000E+00                                                                                                                                                                                                                                                                                                                                                                                                                                                                                                                                                                                                                                                        
    1050.0000     125.0000   -4725.0000  140.625  0.30002  1.55675E-05  1.10000E-10  1.0000E+00  1.10000E-10  1.0000E+00 -1.3444E-05 -1.8833E-06 -2.3408E-07  0.0000E+00                                                                                                                                                                                                                                                                                                                                                                                                                                                                                                                                                                                                                                                        
    1225.0000     125.0000   -4725.0000  140.625  0.20001  1.03745E-05  1.10000E-17  1.0000E+00  1.10000E-17  1.0000E+00 -8.9629E-06 -1.2555E-06 -1.5605E-07  0.0000E+00                                                                                                                                                                                                                                                                                                                                                                                                                                                                                                                                                                                                                                                        
    1475.0000     125.0000   -4725.0000  140.625  0.20001  1.03745E-05  1.10000E-17  1.0000E+00  1.10000E-17  1.0000E+00 -8.9629E-06 -1.2555E-06 -1.5605E-07  0.0000E+00                                                                                                                                                                                                                                                                                                                                                                                                                                                                                                                                                                                                                                                        
    1725.0000     125.0000   -4725.0000  140.625  0.20001  1.03745E-05  1.10000E-17  1.0000E+00  1.10000E-17  1.0000E+00 -8.9629E-06 -1.2555E-06 -1.5605E-07  0.0000E+00                                                                                                                                                                                                                                                                                                                                                                                                                                                                                                                                                                                                                                                        