Title="TOUGHREACT V3.30-OMP flowdata.tec: P,T,SAT & Other Variables"                                                                                                                                                                                                                                                                                                                                                                                                                                                                                                                                                                                                                                                                                                                                                            
Variables= "X(m)"     "Y(m)"      "Z(m)"       "P(Pa)"        "T(C)"      "SatGas"      "SatLiq"          "X1"          "X2"    "Pcap(Pa)"  "DGas_kg/m3"  "DLiq_kg/m3"    "Porosity"  "Perm_X(m2)"  "Perm_Y(m2)"  "Perm_Z(m2)"    "Krel_Gas"    "Krel_Liq"                                                                                                                                                                                                                                                                                                                                                                                                                                                                                                                                                                      
Zone T= "1.00000000E+12 sec" I=     7 J=     6 K=    23 F=Point
  2.500000E+02  2.500000E+02 -5.425000E+03  1.083141E+08  6.208865E+01  0.000000E+00  1.000000E+00  1.000000E+00  0.000000E+00  0.000000E+00  1.425113E-01  1.024537E+03  2.008783E-01  1.100000E-17  1.100000E-17  1.100000E-17  0.000000E+00  1.000000E+00                                                                                                                                                                                                                                                                                                                                                                                                                                                                                                                                                                    
  7.500000E+02  2.500000E+02 -5.425000E+03  1.083141E+08  6.208865E+01  0.000000E+00  1.000000E+00  1.000000E+00  0.000000E+00  0.000000E+00  1.425113E-01  1.024537E+03  2.008783E-01  1.100000E-17  1.100000E-17  1.100000E-17  0.000000E+00  1.000000E+00                                                                                                                                                                                                                                                                                                                                                                                                                                                                                                                                                                    
  1.250000E+03  2.500000E+02 -5.425000E+03  1.083141E+08  6.208865E+01  0.000000E+00  1.000000E+00  1.000000E+00  0.000000E+00  0.000000E+00  1.425113E-01  1.024537E+03  2.008783E-01  1.100000E-17  1.100000E-17  1.100000E-17  0.000000E+00  1.000000E+00                                                                                                                                                                                                                                                                                                                                                                                                                                                                                                                                                                    
  1.750000E+03  2.500000E+02 -5.425000E+03  1.083141E+08  6.208865E+01  0.000000E+00  1.000000E+00  1.000000E+00  0.000000E+00  0.000000E+00  1.425113E-01  1.024537E+03  2.008783E-01  1.100000E-17  1.100000E-17  1.100000E-17  0.000000E+00  1.000000E+00                                                                                                                                                                                                                                                                                                                                                                                                                                                                                                                                                                    
  2.250000E+03  2.500000E+02 -5.425000E+03  1.083141E+08  6.208865E+01  0.000000E+00  1.000000E+00  1.000000E+00  0.000000E+00  0.000000E+00  1.425113E-01  1.024537E+03  2.008783E-01  1.100000E-17  1.100000E-17  1.100000E-17  0.000000E+00  1.000000E+00                                                                                                                                                                                                                                                                                                                                                                                                                                                                                                                                                                    
  2.550000E+03  2.500000E+02 -5.425000E+03  1.083141E+08  6.208865E+01  0.000000E+00  1.000000E+00  1.000000E+00  0.000000E+00  0.000000E+00  1.425113E-01  1.024537E+03  2.008783E-01  1.100000E-17  1.100000E-17  1.100000E-17  0.000000E+00  1.000000E+00                                                                                                                                                                                                                                                                                                                                                                                                                                                                                                                                                                    
  2.850000E+03  2.500000E+02 -5.425000E+03  1.083141E+08  6.208865E+01  0.000000E+00  1.000000E+00  1.000000E+00  0.000000E+00  0.000000E+00  1.425113E-01  1.024537E+03  2.008783E-01  1.100000E-17  1.100000E-17  1.100000E-17  0.000000E+00  1.000000E+00                                                                                                                                                                                                                                                                                                                                                                                                                                                                                                                                                                    
  2.500000E+02  2.500000E+02 -5.225000E+03  1.063030E+08  5.757485E+01  0.000000E+00  1.000000E+00  1.000000E+00  0.000000E+00  0.000000E+00  1.171022E-01  1.026077E+03  2.008516E-01  1.100000E-17  1.100000E-17  1.100000E-17  0.000000E+00  1.000000E+00                                                                                                                                                                                                                                                                                                                                                                                                                                                                                                                                                                    
  7.500000E+02  2.500000E+02 -5.225000E+03  1.063030E+08  5.757485E+01  0.000000E+00  1.000000E+00  1.000000E+00  0.000000E+00  0.000000E+00  1.171022E-01  1.026077E+03  2.008516E-01  1.100000E-17  1.100000E-17  1.100000E-17  0.000000E+00  1.000000E+00                                                                                                                                                                                                                                                                                                                                                                                                                                                                                                                                                                    
  1.250000E+03  2.500000E+02 -5.225000E+03  1.063030E+08  5.757485E+01  0.000000E+00  1.000000E+00  1.000000E+00  0.000000E+00  0.000000E+00  1.171022E-01  1.026077E+03  2.008516E-01  1.100000E-17  1.100000E-17  1.100000E-17  0.000000E+00  1.000000E+00                                                                                                                                                                                                                                                                                                                                                                                                                                                                                                                                                                    
  1.750000E+03  2.500000E+02 -5.225000E+03  1.063030E+08  5.757485E+01  0.000000E+00  1.000000E+00  1.000000E+00  0.000000E+00  0.000000E+00  1.171022E-01  1.026077E+03  2.008516E-01  1.100000E-17  1.100000E-17  1.100000E-17  0.000000E+00  1.000000E+00                                                                                                                                                                                                                                                                                                                                                                                                                                                                                                                                                                    
  2.250000E+03  2.500000E+02 -5.225000E+03  1.063030E+08  5.757485E+01  0.000000E+00  1.000000E+00  1.000000E+00  0.000000E+00  0.000000E+00  1.171021E-01  1.026077E+03  2.008516E-01  1.100000E-17  1.100000E-17  1.100000E-17  0.000000E+00  1.000000E+00                                                                                                                                                                                                                                                                                                                                                                                                                                                                                                                                                                    
  2.550000E+03  2.500000E+02 -5.225000E+03  1.063030E+08  5.757485E+01  0.000000E+00  1.000000E+00  1.000000E+00  0.000000E+00  0.000000E+00  1.171021E-01  1.026077E+03  2.008516E-01  1.100000E-17  1.100000E-17  1.100000E-17  0.000000E+00  1.000000E+00                                                                                                                                                                                                                                                                                                                                                                                                                                                                                                                                                                    
  2.850000E+03  2.500000E+02 -5.225000E+03  1.063030E+08  5.757485E+01  0.000000E+00  1.000000E+00  1.000000E+00  0.000000E+00  0.000000E+00  1.171021E-01  1.026077E+03  2.008516E-01  1.100000E-17  1.100000E-17  1.100000E-17  0.000000E+00  1.000000E+00                                                                                                                                                                                                                                                                                                                                                                                                                                                                                                                                                                    
  2.500000E+02  2.500000E+02 -4.975000E+03  1.037824E+08  5.252398E+01  0.000000E+00  1.000000E+00  1.000000E+00  0.000000E+00  0.000000E+00  9.329328E-02  1.027623E+03  2.008174E-01  1.100000E-17  1.100000E-17  1.100000E-17  0.000000E+00  1.000000E+00                                                                                                                                                                                                                                                                                                                                                                                                                                                                                                                                                                    
  7.500000E+02  2.500000E+02 -4.975000E+03  1.037824E+08  5.252398E+01  0.000000E+00  1.000000E+00  1.000000E+00  0.000000E+00  0.000000E+00  9.329328E-02  1.027623E+03  2.008174E-01  1.100000E-17  1.100000E-17  1.100000E-17  0.000000E+00  1.000000E+00                                                                                                                                                                                                                                                                                                                                                                                                                                                                                                                                                                    
  1.250000E+03  2.500000E+02 -4.975000E+03  1.037824E+08  5.252398E+01  0.000000E+00  1.000000E+00  1.000000E+00  0.000000E+00  0.000000E+00  9.329328E-02  1.027623E+03  2.008174E-01  1.100000E-17  1.100000E-17  1.100000E-17  0.000000E+00  1.000000E+00                                                                                                                                                                                                                                                                                                                                                                                                                                                                                                                                                                    
  1.750000E+03  2.500000E+02 -4.975000E+03  1.037824E+08  5.252398E+01  0.000000E+00  1.000000E+00  1.000000E+00  0.000000E+00  0.000000E+00  9.329328E-02  1.027623E+03  2.008174E-01  1.100000E-17  1.100000E-17  1.100000E-17  0.000000E+00  1.000000E+00                                                                                                                                                                                                                                                                                                                                                                                                                                                                                                                                                                    
  2.250000E+03  2.500000E+02 -4.975000E+03  1.037824E+08  5.252398E+01  0.000000E+00  1.000000E+00  1.000000E+00  0.000000E+00  0.000000E+00  9.329328E-02  1.027623E+03  2.008174E-01  1.100000E-17  1.100000E-17  1.100000E-17  0.000000E+00  1.000000E+00                                                                                                                                                                                                                                                                                                                                                                                                                                                                                                                                                                    
  2.550000E+03  2.500000E+02 -4.975000E+03  1.037824E+08  5.252398E+01  0.000000E+00  1.000000E+00  1.000000E+00  0.000000E+00  0.000000E+00  9.329328E-02  1.027623E+03  2.008174E-01  1.100000E-17  1.100000E-17  1.100000E-17  0.000000E+00  1.000000E+00                                                                                                                                                                                                                                                                                                                                                                                                                                                                                                                                                                    
  2.850000E+03  2.500000E+02 -4.975000E+03  1.037824E+08  5.252398E+01  0.000000E+00  1.000000E+00  1.000000E+00  0.000000E+00  0.000000E+00  9.329328E-02  1.027623E+03  2.008174E-01  1.100000E-17  1.100000E-17  1.100000E-17  0.000000E+00  1.000000E+00                                                                                                                                                                                                                                                                                                                                                                                                                                                                                                                                                                    
  2.500000E+02  2.500000E+02 -4.725000E+03  1.012551E+08  4.804817E+01  0.000000E+00  1.000000E+00  1.000000E+00  0.000000E+00  0.000000E+00  7.574173E-02  1.028811E+03  2.007824E-01  1.100000E-17  1.100000E-17  1.100000E-17  0.000000E+00  1.000000E+00                                                                                                                                                                                                                                                                                                                                                                                                                                                                                                                                                                    
  7.500000E+02  2.500000E+02 -4.725000E+03  1.012551E+08  4.804817E+01  0.000000E+00  1.000000E+00  1.000000E+00  0.000000E+00  0.000000E+00  7.574173E-02  1.028811E+03  2.007824E-01  1.100000E-17  1.100000E-17  1.100000E-17  0.000000E+00  1.000000E+00                                                                                                                                                                                                                                                                                                                                                                                                                                                                                                                                                                    
  1.250000E+03  2.500000E+02 -4.725000E+03  1.012551E+08  4.804817E+01  0.000000E+00  1.000000E+00  1.000000E+00  0.000000E+00  0.000000E+00  7.574173E-02  1.028811E+03  2.007824E-01  1.100000E-17  1.100000E-17  1.100000E-17  0.000000E+00  1.000000E+00                                                                                                                                                                                                                                                                                                                                                                                                                                                                                                                                                                    
  1.750000E+03  2.500000E+02 -4.725000E+03  1.012551E+08  4.804817E+01  0.000000E+00  1.000000E+00  1.000000E+00  0.000000E+00  0.000000E+00  7.574173E-02  1.028811E+03  2.007824E-01  1.100000E-17  1.100000E-17  1.100000E-17  0.000000E+00  1.000000E+00                                                                                                                                                                                                                                                                                                                                                                                                                                                                                                                                                                    
  2.250000E+03  2.500000E+02 -4.725000E+03  1.012551E+08  4.804817E+01  0.000000E+00  1.000000E+00  1.000000E+00  0.000000E+00  0.000000E+00  7.574173E-02  1.028811E+03  2.007824E-01  1.100000E-17  1.100000E-17  1.100000E-17  0.000000E+00  1.000000E+00                                                                                                                                                                                                                                                                                                                                                                                                                                                                                                                                                                    
  2.550000E+03  2.500000E+02 -4.725000E+03  1.012551E+08  4.804817E+01  0.000000E+00  1.000000E+00  1.000000E+00  0.000000E+00  0.000000E+00  7.574173E-02  1.028811E+03  2.007824E-01  1.100000E-17  1.100000E-17  1.100000E-17  0.000000E+00  1.000000E+00                                                                                                                                                                                                                                                                                                                                                                                                                                                                                                                                                                    
  2.850000E+03  2.500000E+02 -4.725000E+03  1.012551E+08  4.804817E+01  0.000000E+00  1.000000E+00  1.000000E+00  0.000000E+00  0.000000E+00  7.574173E-02  1.028811E+03  2.007824E-01  1.100000E-17  1.100000E-17  1.100000E-17  0.000000E+00  1.000000E+00                                                                                                                                                                                                                                                                                                                                                                                                                                                                                                                                                                    
  2.500000E+02  2.500000E+02 -4.550000E+03  9.948228E+07  4.529985E+01  0.000000E+00  1.000000E+00  1.000000E+00  0.000000E+00  0.000000E+00  6.641695E-02  1.029422E+03  2.007578E-01  1.100000E-17  1.100000E-17  1.100000E-17  0.000000E+00  1.000000E+00                                                                                                                                                                                                                                                                                                                                                                                                                                                                                                                                                                    
  7.500000E+02  2.500000E+02 -4.550000E+03  9.948228E+07  4.529985E+01  0.000000E+00  1.000000E+00  1.000000E+00  0.000000E+00  0.000000E+00  6.641695E-02  1.029422E+03  2.007578E-01  1.100000E-17  1.100000E-17  1.100000E-17  0.000000E+00  1.000000E+00                                                                                                                                                                                                                                                                                                                                                                                                                                                                                                                                                                    
  1.250000E+03  2.500000E+02 -4.550000E+03  9.948228E+07  4.529985E+01  0.000000E+00  1.000000E+00  1.000000E+00  0.000000E+00  0.000000E+00  6.641695E-02  1.029422E+03  2.007578E-01  1.100000E-17  1.100000E-17  1.100000E-17  0.000000E+00  1.000000E+00                                                                                                                                                                                                                                                                                                                                                                                                                                                                                                                                                                    
  1.750000E+03  2.500000E+02 -4.550000E+03  9.948228E+07  4.529985E+01  0.000000E+00  1.000000E+00  1.000000E+00  0.000000E+00  0.000000E+00  6.641695E-02  1.029422E+03  2.007578E-01  1.100000E-17  1.100000E-17  1.100000E-17  0.000000E+00  1.000000E+00                                                                                                                                                                                                                                                                                                                                                                                                                                                                                                                                                                    
  2.250000E+03  2.500000E+02 -4.550000E+03  9.948228E+07  4.529985E+01  0.000000E+00  1.000000E+00  1.000000E+00  0.000000E+00  0.000000E+00  6.641695E-02  1.029422E+03  2.007578E-01  1.100000E-17  1.100000E-17  1.100000E-17  0.000000E+00  1.000000E+00                                                                                                                                                                                                                                                                                                                                                                                                                                                                                                                                                                    
  2.550000E+03  2.500000E+02 -4.550000E+03  9.948228E+07  4.529985E+01  0.000000E+00  1.000000E+00  1.000000E+00  0.000000E+00  0.000000E+00  6.641695E-02  1.029422E+03  2.007578E-01  1.100000E-17  1.100000E-17  1.100000E-17  0.000000E+00  1.000000E+00                                                                                                                                                                                                                                                                                                                                                                                                                                                                                                                                                                    
  2.850000E+03  2.500000E+02 -4.550000E+03  9.948228E+07  4.529985E+01  0.000000E+00  1.000000E+00  1.000000E+00  0.000000E+00  0.000000E+00  6.641695E-02  1.029422E+03  2.007578E-01  1.100000E-17  1.100000E-17  1.100000E-17  0.000000E+00  1.000000E+00                                                                                                                                                                                                                                                                                                                                                                                                                                                                                                                                                                    