Title="TREACTMECH V1.0-OMP-MPI displacement.tec: Nodal Displacements"                                                                                                                                                                                                                                                                                                                                                                                                                                                                                                                                                                                                                                                                                                                                                           
Variables= "X(m)"     "Y(m)"      "Z(m)"      "Disp_x"      "Disp_y"      "Disp_z"                                                                                                                                                                                                                                                                                                                                                                                                                                                                                                                                                                                                                                                                                                                                              
Zone T= "5.18400000E+05 sec" I=    10 J=    11 K=    24 F=Point
  0.000000E+00  0.000000E+00 -5.500000E+03  0.000000E+00  0.000000E+00  0.000000E+00                                                                                                                                                                                                                                                                                                                                                                                                                                                                                                                                                                                                                                                                                                                                            
  2.500000E+02  0.000000E+00 -5.500000E+03  5.848557E-03  0.000000E+00  0.000000E+00                                                                                                                                                                                                                                                                                                                                                                                                                                                                                                                                                                                                                                                                                                                                            
  5.000000E+02  0.000000E+00 -5.500000E+03  9.097444E-03  0.000000E+00  0.000000E+00                                                                                                                                                                                                                                                                                                                                                                                                                                                                                                                                                                                                                                                                                                                                            
  7.500000E+02  0.000000E+00 -5.500000E+03  7.707358E-03  0.000000E+00  0.000000E+00                                                                                                                                                                                                                                                                                                                                                                                                                                                                                                                                                                                                                                                                                                                                            
  1.000000E+03  0.000000E+00 -5.500000E+03  1.628355E-03  0.000000E+00  0.000000E+00                                                                                                                                                                                                                                                                                                                                                                                                                                                                                                                                                                                                                                                                                                                                            
  1.100000E+03  0.000000E+00 -5.500000E+03 -1.628286E-03  0.000000E+00  0.000000E+00                                                                                                                                                                                                                                                                                                                                                                                                                                                                                                                                                                                                                                                                                                                                            
  1.350000E+03  0.000000E+00 -5.500000E+03 -7.707300E-03  0.000000E+00  0.000000E+00                                                                                                                                                                                                                                                                                                                                                                                                                                                                                                                                                                                                                                                                                                                                            
  1.600000E+03  0.000000E+00 -5.500000E+03 -9.097401E-03  0.000000E+00  0.000000E+00                                                                                                                                                                                                                                                                                                                                                                                                                                                                                                                                                                                                                                                                                                                                            
  1.850000E+03  0.000000E+00 -5.500000E+03 -5.848535E-03  0.000000E+00  0.000000E+00                                                                                                                                                                                                                                                                                                                                                                                                                                                                                                                                                                                                                                                                                                                                            
  2.100000E+03  0.000000E+00 -5.500000E+03  0.000000E+00  0.000000E+00  0.000000E+00                                                                                                                                                                                                                                                                                                                                                                                                                                                                                                                                                                                                                                                                                                                                            
  0.000000E+00  2.500000E+02 -5.500000E+03  0.000000E+00  3.370030E-05  0.000000E+00                                                                                                                                                                                                                                                                                                                                                                                                                                                                                                                                                                                                                                                                                                                                            
  2.500000E+02  2.500000E+02 -5.500000E+03  5.849122E-03  3.413181E-05  0.000000E+00                                                                                                                                                                                                                                                                                                                                                                                                                                                                                                                                                                                                                                                                                                                                            
  5.000000E+02  2.500000E+02 -5.500000E+03  9.098532E-03  3.541381E-05  0.000000E+00                                                                                                                                                                                                                                                                                                                                                                                                                                                                                                                                                                                                                                                                                                                                            
  7.500000E+02  2.500000E+02 -5.500000E+03  7.708124E-03  3.684024E-05  0.000000E+00                                                                                                                                                                                                                                                                                                                                                                                                                                                                                                                                                                                                                                                                                                                                            
  1.000000E+03  2.500000E+02 -5.500000E+03  1.628650E-03  3.765326E-05  0.000000E+00                                                                                                                                                                                                                                                                                                                                                                                                                                                                                                                                                                                                                                                                                                                                            
  1.100000E+03  2.500000E+02 -5.500000E+03 -1.628585E-03  3.765375E-05  0.000000E+00                                                                                                                                                                                                                                                                                                                                                                                                                                                                                                                                                                                                                                                                                                                                            
  1.350000E+03  2.500000E+02 -5.500000E+03 -7.708067E-03  3.684783E-05  0.000000E+00                                                                                                                                                                                                                                                                                                                                                                                                                                                                                                                                                                                                                                                                                                                                            
  1.600000E+03  2.500000E+02 -5.500000E+03 -9.098490E-03  3.542496E-05  0.000000E+00                                                                                                                                                                                                                                                                                                                                                                                                                                                                                                                                                                                                                                                                                                                                            
  1.850000E+03  2.500000E+02 -5.500000E+03 -5.849099E-03  3.414558E-05  0.000000E+00                                                                                                                                                                                                                                                                                                                                                                                                                                                                                                                                                                                                                                                                                                                                            
  2.100000E+03  2.500000E+02 -5.500000E+03  0.000000E+00  3.371524E-05  0.000000E+00                                                                                                                                                                                                                                                                                                                                                                                                                                                                                                                                                                                                                                                                                                                                            
  0.000000E+00  5.000000E+02 -5.500000E+03  0.000000E+00  5.987227E-05  0.000000E+00                                                                                                                                                                                                                                                                                                                                                                                                                                                                                                                                                                                                                                                                                                                                            
  2.500000E+02  5.000000E+02 -5.500000E+03  5.850878E-03  6.083186E-05  0.000000E+00                                                                                                                                                                                                                                                                                                                                                                                                                                                                                                                                                                                                                                                                                                                                            
  5.000000E+02  5.000000E+02 -5.500000E+03  9.101022E-03  6.288485E-05  0.000000E+00                                                                                                                                                                                                                                                                                                                                                                                                                                                                                                                                                                                                                                                                                                                                            
  7.500000E+02  5.000000E+02 -5.500000E+03  7.710591E-03  6.535691E-05  0.000000E+00                                                                                                                                                                                                                                                                                                                                                                                                                                                                                                                                                                                                                                                                                                                                            
  1.000000E+03  5.000000E+02 -5.500000E+03  1.628962E-03  6.676790E-05  0.000000E+00                                                                                                                                                                                                                                                                                                                                                                                                                                                                                                                                                                                                                                                                                                                                            
  1.100000E+03  5.000000E+02 -5.500000E+03 -1.628908E-03  6.676962E-05  0.000000E+00                                                                                                                                                                                                                                                                                                                                                                                                                                                                                                                                                                                                                                                                                                                                            
  1.350000E+03  5.000000E+02 -5.500000E+03 -7.710541E-03  6.537156E-05  0.000000E+00                                                                                                                                                                                                                                                                                                                                                                                                                                                                                                                                                                                                                                                                                                                                            
  1.600000E+03  5.000000E+02 -5.500000E+03 -9.100986E-03  6.290692E-05  0.000000E+00                                                                                                                                                                                                                                                                                                                                                                                                                                                                                                                                                                                                                                                                                                                                            
  1.850000E+03  5.000000E+02 -5.500000E+03 -5.850858E-03  6.085863E-05  0.000000E+00                                                                                                                                                                                                                                                                                                                                                                                                                                                                                                                                                                                                                                                                                                                                            
  2.100000E+03  5.000000E+02 -5.500000E+03  0.000000E+00  5.990060E-05  0.000000E+00                                                                                                                                                                                                                                                                                                                                                                                                                                                                                                                                                                                                                                                                                                                                            
  0.000000E+00  7.500000E+02 -5.500000E+03  0.000000E+00  7.294222E-05  0.000000E+00                                                                                                                                                                                                                                                                                                                                                                                                                                                                                                                                                                                                                                                                                                                                            
  2.500000E+02  7.500000E+02 -5.500000E+03  5.852983E-03  7.368801E-05  0.000000E+00                                                                                                                                                                                                                                                                                                                                                                                                                                                                                                                                                                                                                                                                                                                                            
  5.000000E+02  7.500000E+02 -5.500000E+03  9.104641E-03  7.627451E-05  0.000000E+00                                                                                                                                                                                                                                                                                                                                                                                                                                                                                                                                                                                                                                                                                                                                            
  7.500000E+02  7.500000E+02 -5.500000E+03  7.713151E-03  7.880618E-05  0.000000E+00                                                                                                                                                                                                                                                                                                                                                                                                                                                                                                                                                                                                                                                                                                                                            
  1.000000E+03  7.500000E+02 -5.500000E+03  1.629864E-03  8.020044E-05  0.000000E+00                                                                                                                                                                                                                                                                                                                                                                                                                                                                                                                                                                                                                                                                                                                                            