Title="TREACTMECH V1.0-OMP-MPI stress-strain.tec: Total Stresses (Pa), Strains"                                                                                                                                                                                                                                                                                                                                                                                                                                                                                                                                                                                                                                                                                                                                                 
Variables= "X(m)"     "Y(m)"      "Z(m)"    "Sigma_xx"    "Sigma_yy"    "Sigma_zz"    "Sigma_yz"    "Sigma_xz"    "Sigma_xy"   "Strain_xx"   "Strain_yy"   "Strain_zz"   "Strain_yz"   "Strain_xz"   "Strain_xy"  "Vol_Strain"   "E_fail_xx"   "E_fail_yy"   "E_fail_zz"  "E_fail_yz2"  "E_fail_xz2"  "E_fail_xy2"  "E_fail_vol"                                                                                                                                                                                                                                                                                                                                                                                                                                                                                                
Zone T= "5.00000000E-02 sec" I=     9 J=    10 K=    23 F=Point
  1.250000E+02  1.250000E+02 -5.425000E+03 -1.138468E+08 -9.916276E+07 -1.259899E+08  1.372581E-02  2.626128E+03  6.040603E+00  3.178618E-05  1.446018E-07 -4.241431E-05  3.194426E-12  6.111822E-07  1.047038E-09 -1.048352E-05  0.000000E+00  0.000000E+00  0.000000E+00  0.000000E+00  0.000000E+00  0.000000E+00  0.000000E+00                                                                                                                                                                                                                                                                                                                                                                                                                                                                                              
  3.750000E+02  1.250000E+02 -5.425000E+03 -1.138658E+08 -9.905155E+07 -1.257898E+08  6.976236E-01  9.358546E+03  2.040242E+01  1.778559E-05  1.463646E-07 -3.947638E-05  1.623589E-10  2.178027E-06  3.536419E-09 -2.154442E-05  0.000000E+00  0.000000E+00  0.000000E+00  0.000000E+00  0.000000E+00  0.000000E+00  0.000000E+00                                                                                                                                                                                                                                                                                                                                                                                                                                                                                              
  6.250000E+02  1.250000E+02 -5.425000E+03 -1.139085E+08 -9.885789E+07 -1.254314E+08  2.289230E+00  1.551835E+04  2.415479E+01 -7.435841E-06  1.493774E-07 -3.349652E-05  5.327756E-10  3.611607E-06  4.186831E-09 -4.078298E-05  0.000000E+00  0.000000E+00  0.000000E+00  0.000000E+00  0.000000E+00  0.000000E+00  0.000000E+00                                                                                                                                                                                                                                                                                                                                                                                                                                                                                              
  8.750000E+02  1.250000E+02 -5.425000E+03 -1.139581E+08 -9.866432E+07 -1.250681E+08  4.161872E+00  1.134876E+04  1.451894E+01 -3.327535E-05  1.520073E-07 -2.712404E-05  9.685981E-10  2.641212E-06  2.516617E-09 -6.024738E-05  0.000000E+00  0.000000E+00  0.000000E+00  0.000000E+00  0.000000E+00  0.000000E+00  0.000000E+00                                                                                                                                                                                                                                                                                                                                                                                                                                                                                              
  1.050000E+03  1.250000E+02 -5.425000E+03 -1.139789E+08 -9.858146E+07 -1.249132E+08  4.957069E+00 -9.720924E-04  2.912046E-02 -4.430174E-05  1.530089E-07 -2.445354E-05  1.153665E-09 -2.262364E-13  5.047546E-12 -6.860227E-05  0.000000E+00  0.000000E+00  0.000000E+00  0.000000E+00  0.000000E+00  0.000000E+00  0.000000E+00                                                                                                                                                                                                                                                                                                                                                                                                                                                                                              
  1.225000E+03  1.250000E+02 -5.425000E+03 -1.139581E+08 -9.866432E+07 -1.250681E+08  4.137547E+00 -1.134868E+04 -1.443031E+01 -3.327539E-05  1.520531E-07 -2.712401E-05  9.629368E-10 -2.641193E-06 -2.501253E-09 -6.024734E-05  0.000000E+00  0.000000E+00  0.000000E+00  0.000000E+00  0.000000E+00  0.000000E+00  0.000000E+00                                                                                                                                                                                                                                                                                                                                                                                                                                                                                              
  1.475000E+03  1.250000E+02 -5.425000E+03 -1.139085E+08 -9.885789E+07 -1.254314E+08  2.258459E+00 -1.551828E+04 -2.413076E+01 -7.435952E-06  1.494700E-07 -3.349647E-05  5.256143E-10 -3.611590E-06 -4.182665E-09 -4.078296E-05  0.000000E+00  0.000000E+00  0.000000E+00  0.000000E+00  0.000000E+00  0.000000E+00  0.000000E+00                                                                                                                                                                                                                                                                                                                                                                                                                                                                                              
  1.725000E+03  1.250000E+02 -5.425000E+03 -1.138658E+08 -9.905155E+07 -1.257898E+08  6.845107E-01 -9.358480E+03 -2.038185E+01  1.778545E-05  1.464812E-07 -3.947635E-05  1.593071E-10 -2.178012E-06 -3.532853E-09 -2.154442E-05  0.000000E+00  0.000000E+00  0.000000E+00  0.000000E+00  0.000000E+00  0.000000E+00  0.000000E+00                                                                                                                                                                                                                                                                                                                                                                                                                                                                                              
  1.975000E+03  1.250000E+02 -5.425000E+03 -1.138468E+08 -9.916276E+07 -1.259899E+08  1.231852E-02 -2.626096E+03 -6.030103E+00  3.178601E-05  1.447319E-07 -4.241428E-05  2.866906E-12 -6.111748E-07 -1.045218E-09 -1.048354E-05  0.000000E+00  0.000000E+00  0.000000E+00  0.000000E+00  0.000000E+00  0.000000E+00  0.000000E+00                                                                                                                                                                                                                                                                                                                                                                                                                                                                                              
  1.250000E+02  1.250000E+02 -5.225000E+03 -1.102614E+08 -9.605387E+07 -1.220327E+08  1.748561E+00  8.075211E+03  7.047350E+00  3.252070E-05  1.377002E-07 -3.987522E-05  4.069449E-10  1.879355E-06  1.221541E-09 -7.216824E-06  0.000000E+00  0.000000E+00  0.000000E+00  0.000000E+00  0.000000E+00  0.000000E+00  0.000000E+00                                                                                                                                                                                                                                                                                                                                                                                                                                                                                              
  3.750000E+02  1.250000E+02 -5.225000E+03 -1.102723E+08 -9.593962E+07 -1.218376E+08  3.917884E+00  2.736028E+04  2.326421E+01  1.885854E-05  1.397171E-07 -3.781442E-05  9.118143E-10  6.367594E-06  4.032462E-09 -1.881615E-05  0.000000E+00  0.000000E+00  0.000000E+00  0.000000E+00  0.000000E+00  0.000000E+00  0.000000E+00                                                                                                                                                                                                                                                                                                                                                                                                                                                                                              
  6.250000E+02  1.250000E+02 -5.225000E+03 -1.102967E+08 -9.572735E+07 -1.214707E+08  8.702507E+00  4.470775E+04  2.865959E+01 -6.903583E-06  1.432192E-07 -3.358591E-05  2.025346E-09  1.040490E-05  4.967662E-09 -4.034627E-05  0.000000E+00  0.000000E+00  0.000000E+00  0.000000E+00  0.000000E+00  0.000000E+00  0.000000E+00                                                                                                                                                                                                                                                                                                                                                                                                                                                                                              
  8.750000E+02  1.250000E+02 -5.225000E+03 -1.103292E+08 -9.550090E+07 -1.210762E+08  1.421050E+01  3.257091E+04  1.757341E+01 -3.498827E-05  1.463547E-07 -2.890386E-05  3.307228E-09  7.580270E-06  3.046057E-09 -6.374577E-05  0.000000E+00  0.000000E+00  0.000000E+00  0.000000E+00  0.000000E+00  0.000000E+00  0.000000E+00                                                                                                                                                                                                                                                                                                                                                                                                                                                                                              
  1.050000E+03  1.250000E+02 -5.225000E+03 -1.103423E+08 -9.539943E+07 -1.209004E+08  1.660948E+01 -9.793721E-02  3.249304E-02 -4.743588E-05  1.475597E-07 -2.687136E-05  3.865547E-09 -2.279306E-11  5.632128E-12 -7.415968E-05  0.000000E+00  0.000000E+00  0.000000E+00  0.000000E+00  0.000000E+00  0.000000E+00  0.000000E+00                                                                                                                                                                                                                                                                                                                                                                                                                                                                                              
  1.225000E+03  1.250000E+02 -5.225000E+03 -1.103292E+08 -9.550090E+07 -1.210762E+08  1.416143E+01 -3.257107E+04 -1.748467E+01 -3.498830E-05  1.463956E-07 -2.890385E-05  3.295808E-09 -7.580309E-06 -3.030676E-09 -6.374575E-05  0.000000E+00  0.000000E+00  0.000000E+00  0.000000E+00  0.000000E+00  0.000000E+00  0.000000E+00                                                                                                                                                                                                                                                                                                                                                                                                                                                                                              
  1.475000E+03  1.250000E+02 -5.225000E+03 -1.102967E+08 -9.572735E+07 -1.214707E+08  8.624207E+00 -4.470804E+04 -2.863799E+01 -6.903685E-06  1.433041E-07 -3.358590E-05  2.007123E-09 -1.040496E-05 -4.963919E-09 -4.034628E-05  0.000000E+00  0.000000E+00  0.000000E+00  0.000000E+00  0.000000E+00  0.000000E+00  0.000000E+00                                                                                                                                                                                                                                                                                                                                                                                                                                                                                              
  1.725000E+03  1.250000E+02 -5.225000E+03 -1.102723E+08 -9.593962E+07 -1.218376E+08  3.848147E+00 -2.736047E+04 -2.325407E+01  1.885841E-05  1.398268E-07 -3.781440E-05  8.955844E-10 -6.367639E-06 -4.030706E-09 -1.881617E-05  0.000000E+00  0.000000E+00  0.000000E+00  0.000000E+00  0.000000E+00  0.000000E+00  0.000000E+00                                                                                                                                                                                                                                                                                                                                                                                                                                                                                              
  1.975000E+03  1.250000E+02 -5.225000E+03 -1.102614E+08 -9.605387E+07 -1.220327E+08  1.686995E+00 -8.075277E+03 -7.044501E+00  3.252053E-05  1.378239E-07 -3.987521E-05  3.926166E-10 -1.879370E-06 -1.221047E-09 -7.216853E-06  0.000000E+00  0.000000E+00  0.000000E+00  0.000000E+00  0.000000E+00  0.000000E+00  0.000000E+00                                                                                                                                                                                                                                                                                                                                                                                                                                                                                              
  1.250000E+02  1.250000E+02 -4.975000E+03 -1.057661E+08 -9.215951E+07 -1.170884E+08  5.422574E-01  1.107776E+04  9.309164E+00  3.365639E-05  1.215144E-07 -3.802541E-05  1.262003E-10  2.578141E-06  1.613588E-09 -4.247497E-06  0.000000E+00  0.000000E+00  0.000000E+00  0.000000E+00  0.000000E+00  0.000000E+00  0.000000E+00                                                                                                                                                                                                                                                                                                                                                                                                                                                                                              
  3.750000E+02  1.250000E+02 -4.975000E+03 -1.057670E+08 -9.204524E+07 -1.169023E+08  4.470057E+00  3.921324E+04  2.966702E+01  2.086839E-05  1.240748E-07 -3.672454E-05  1.040322E-09  9.126150E-06  5.142283E-09 -1.573208E-05  0.000000E+00  0.000000E+00  0.000000E+00  0.000000E+00  0.000000E+00  0.000000E+00  0.000000E+00                                                                                                                                                                                                                                                                                                                                                                                                                                                                                              
  6.250000E+02  1.250000E+02 -4.975000E+03 -1.057776E+08 -9.181604E+07 -1.165230E+08  1.295270E+01  6.916720E+04  3.814031E+01 -5.592682E-06  1.285857E-07 -3.364894E-05  3.014500E-09  1.609738E-05  6.610987E-09 -3.911304E-05  0.000000E+00  0.000000E+00  0.000000E+00  0.000000E+00  0.000000E+00  0.000000E+00  0.000000E+00                                                                                                                                                                                                                                                                                                                                                                                                                                                                                              
  8.750000E+02  1.250000E+02 -4.975000E+03 -1.057995E+08 -9.154180E+07 -1.160614E+08  2.298329E+01  5.583550E+04  2.421658E+01 -3.807392E-05  1.327741E-07 -2.934109E-05  5.348931E-09  1.299467E-05  4.197541E-09 -6.728223E-05  0.000000E+00  0.000000E+00  0.000000E+00  0.000000E+00  0.000000E+00  0.000000E+00  0.000000E+00                                                                                                                                                                                                                                                                                                                                                                                                                                                                                              
  1.050000E+03  1.250000E+02 -4.975000E+03 -1.058215E+08 -9.141435E+07 -1.158421E+08  2.755317E+01 -1.110760E-01  2.747513E-02 -5.429003E-05  1.344201E-07 -2.710005E-05  6.412486E-09 -2.585086E-11  4.762356E-12 -8.125566E-05  0.000000E+00  0.000000E+00  0.000000E+00  0.000000E+00  0.000000E+00  0.000000E+00  0.000000E+00                                                                                                                                                                                                                                                                                                                                                                                                                                                                                              
  1.225000E+03  1.250000E+02 -4.975000E+03 -1.057995E+08 -9.154180E+07 -1.160614E+08  2.293670E+01 -5.583570E+04 -2.414382E+01 -3.807395E-05  1.328073E-07 -2.934109E-05  5.338088E-09 -1.299472E-05 -4.184928E-09 -6.728223E-05  0.000000E+00  0.000000E+00  0.000000E+00  0.000000E+00  0.000000E+00  0.000000E+00  0.000000E+00                                                                                                                                                                                                                                                                                                                                                                                                                                                                                              
  1.475000E+03  1.250000E+02 -4.975000E+03 -1.057776E+08 -9.181604E+07 -1.165230E+08  1.287274E+01 -6.916751E+04 -3.812410E+01 -5.592765E-06  1.286563E-07 -3.364895E-05  2.995891E-09 -1.609745E-05 -6.608178E-09 -3.911305E-05  0.000000E+00  0.000000E+00  0.000000E+00  0.000000E+00  0.000000E+00  0.000000E+00  0.000000E+00                                                                                                                                                                                                                                                                                                                                                                                                                                                                                              
  1.725000E+03  1.250000E+02 -4.975000E+03 -1.057670E+08 -9.204524E+07 -1.169023E+08  4.389069E+00 -3.921346E+04 -2.966257E+01  2.086828E-05  1.241679E-07 -3.672454E-05  1.021474E-09 -9.126201E-06 -5.141511E-09 -1.573210E-05  0.000000E+00  0.000000E+00  0.000000E+00  0.000000E+00  0.000000E+00  0.000000E+00  0.000000E+00                                                                                                                                                                                                                                                                                                                                                                                                                                                                                              
  1.975000E+03  1.250000E+02 -4.975000E+03 -1.057661E+08 -9.215951E+07 -1.170884E+08  4.633659E-01 -1.107784E+04 -9.309323E+00  3.365626E-05  1.216201E-07 -3.802541E-05  1.078398E-10 -2.578160E-06 -1.613616E-09 -4.247525E-06  0.000000E+00  0.000000E+00  0.000000E+00  0.000000E+00  0.000000E+00  0.000000E+00  0.000000E+00                                                                                                                                                                                                                                                                                                                                                                                                                                                                                              
  1.250000E+02  1.250000E+02 -4.725000E+03 -1.012845E+08 -8.826379E+07 -1.121337E+08 -7.634244E+00  6.622006E+03  1.187335E+01  3.336002E-05  9.637370E-08 -3.561410E-05 -1.776728E-09  1.541148E-06  2.058047E-09 -2.157706E-06  0.000000E+00  0.000000E+00  0.000000E+00  0.000000E+00  0.000000E+00  0.000000E+00  0.000000E+00                                                                                                                                                                                                                                                                                                                                                                                                                                                                                              
  3.750000E+02  1.250000E+02 -4.725000E+03 -1.012627E+08 -8.814963E+07 -1.119650E+08 -2.833083E+00  2.908586E+04  3.721820E+01  2.262238E-05  9.951283E-08 -3.566117E-05 -6.593472E-10  6.769192E-06  6.451155E-09 -1.293928E-05  0.000000E+00  0.000000E+00  0.000000E+00  0.000000E+00  0.000000E+00  0.000000E+00  0.000000E+00                                                                                                                                                                                                                                                                                                                                                                                                                                                                                              
  6.250000E+02  1.250000E+02 -4.725000E+03 -1.012268E+08 -8.790396E+07 -1.115856E+08  7.912779E+00  7.852299E+04  4.967732E+01 -1.344928E-06  1.050173E-07 -3.421041E-05  1.841552E-09  1.827476E-05  8.610736E-09 -3.545032E-05  0.000000E+00  0.000000E+00  0.000000E+00  0.000000E+00  0.000000E+00  0.000000E+00  0.000000E+00                                                                                                                                                                                                                                                                                                                                                                                                                                                                                              
  8.750000E+02  1.250000E+02 -4.725000E+03 -1.012651E+08 -8.757206E+07 -1.110256E+08  2.144064E+01  8.365919E+04  3.294189E+01 -4.182492E-05  1.101970E-07 -2.914194E-05  4.989909E-09  1.947011E-05  5.709927E-09 -7.085667E-05  0.000000E+00  0.000000E+00  0.000000E+00  0.000000E+00  0.000000E+00  0.000000E+00  0.000000E+00                                                                                                                                                                                                                                                                                                                                                                                                                                                                                              
  1.050000E+03  1.250000E+02 -4.725000E+03 -1.012742E+08 -8.737856E+07 -1.106968E+08  2.803904E+01 -1.281014E-01  1.313911E-02 -6.406204E-05  1.122667E-07 -2.559915E-05  6.525562E-09 -2.981321E-11  2.277445E-12 -8.954893E-05  0.000000E+00  0.000000E+00  0.000000E+00  0.000000E+00  0.000000E+00  0.000000E+00  0.000000E+00                                                                                                                                                                                                                                                                                                                                                                                                                                                                                              
  1.225000E+03  1.250000E+02 -4.725000E+03 -1.012651E+08 -8.757206E+07 -1.110256E+08  2.140664E+01 -8.365943E+04 -3.290127E+01 -4.182495E-05  1.102224E-07 -2.914195E-05  4.981995E-09 -1.947017E-05 -5.702886E-09 -7.085667E-05  0.000000E+00  0.000000E+00  0.000000E+00  0.000000E+00  0.000000E+00  0.000000E+00  0.000000E+00                                                                                                                                                                                                                                                                                                                                                                                                                                                                                              
  1.475000E+03  1.250000E+02 -4.725000E+03 -1.012268E+08 -8.790396E+07 -1.115856E+08  7.849969E+00 -7.852328E+04 -4.967049E+01 -1.344993E-06  1.050725E-07 -3.421042E-05  1.826934E-09 -1.827483E-05 -8.609552E-09 -3.545034E-05  0.000000E+00  0.000000E+00  0.000000E+00  0.000000E+00  0.000000E+00  0.000000E+00  0.000000E+00                                                                                                                                                                                                                                                                                                                                                                                                                                                                                              
  1.725000E+03  1.250000E+02 -4.725000E+03 -1.012627E+08 -8.814963E+07 -1.119650E+08 -2.904121E+00 -2.908607E+04 -3.721682E+01  2.262229E-05  9.958727E-08 -3.566118E-05 -6.758801E-10 -6.769239E-06 -6.450915E-09 -1.293930E-05  0.000000E+00  0.000000E+00  0.000000E+00  0.000000E+00  0.000000E+00  0.000000E+00  0.000000E+00                                                                                                                                                                                                                                                                                                                                                                                                                                                                                              