Title="TREACTMECH V1.0-OMP-MPI stress-strain.tec: Total Stresses (Pa), Strains"                                                                                                                                                                                                                                                                                                                                                                                                                                                                                                                                                                                                                                                                                                                                                 
Variables= "X(m)"     "Y(m)"      "Z(m)"    "Sigma_xx"    "Sigma_yy"    "Sigma_zz"    "Sigma_yz"    "Sigma_xz"    "Sigma_xy"   "Strain_xx"   "Strain_yy"   "Strain_zz"   "Strain_yz"   "Strain_xz"   "Strain_xy"  "Vol_Strain"   "E_fail_xx"   "E_fail_yy"   "E_fail_zz"  "E_fail_yz2"  "E_fail_xz2"  "E_fail_xy2"  "E_fail_vol"                                                                                                                                                                                                                                                                                                                                                                                                                                                                                                
Zone T= "1.00000000E+09 sec" I=     9 J=    10 K=    23 F=Point
  1.250000E+02  1.250000E+02 -5.425000E+03 -1.138880E+08 -9.920363E+07 -1.259894E+08  2.771253E-02  2.614097E+03  6.073542E+00  3.176305E-05  1.433126E-07 -3.883189E-05  6.449575E-12  6.083824E-07  1.052747E-09 -6.925534E-06  0.000000E+00  0.000000E+00  0.000000E+00  0.000000E+00  0.000000E+00  0.000000E+00  0.000000E+00                                                                                                                                                                                                                                                                                                                                                                                                                                                                                              
  3.750000E+02  1.250000E+02 -5.425000E+03 -1.139068E+08 -9.909244E+07 -1.257895E+08  7.083866E-01  9.318598E+03  2.049380E+01  1.777173E-05  1.450849E-07 -3.590841E-05  1.648638E-10  2.168730E-06  3.552259E-09 -1.799160E-05  0.000000E+00  0.000000E+00  0.000000E+00  0.000000E+00  0.000000E+00  0.000000E+00  0.000000E+00                                                                                                                                                                                                                                                                                                                                                                                                                                                                                              
  6.250000E+02  1.250000E+02 -5.425000E+03 -1.139493E+08 -9.889883E+07 -1.254315E+08  2.291549E+00  1.545553E+04  2.425573E+01 -7.430645E-06  1.481138E-07 -2.995768E-05  5.333152E-10  3.596985E-06  4.204327E-09 -3.724021E-05  0.000000E+00  0.000000E+00  0.000000E+00  0.000000E+00  0.000000E+00  0.000000E+00  0.000000E+00                                                                                                                                                                                                                                                                                                                                                                                                                                                                                              
  8.750000E+02  1.250000E+02 -5.425000E+03 -1.139987E+08 -9.870529E+07 -1.250686E+08  4.168432E+00  1.129821E+04  1.450535E+01 -3.325033E-05  1.507414E-07 -2.361773E-05  9.701248E-10  2.629446E-06  2.514260E-09 -5.671732E-05  0.000000E+00  0.000000E+00  0.000000E+00  0.000000E+00  0.000000E+00  0.000000E+00  0.000000E+00                                                                                                                                                                                                                                                                                                                                                                                                                                                                                              
  1.050000E+03  1.250000E+02 -5.425000E+03 -1.140194E+08 -9.862241E+07 -1.249139E+08  4.977778E+00 -2.436627E-03  1.816917E-03 -4.426955E-05  1.517254E-07 -2.096173E-05  1.158485E-09 -5.670794E-13  3.149322E-13 -6.507955E-05  0.000000E+00  0.000000E+00  0.000000E+00  0.000000E+00  0.000000E+00  0.000000E+00  0.000000E+00                                                                                                                                                                                                                                                                                                                                                                                                                                                                                              
  1.225000E+03  1.250000E+02 -5.425000E+03 -1.139987E+08 -9.870529E+07 -1.250686E+08  4.167093E+00 -1.129823E+04 -1.450429E+01 -3.325030E-05  1.507423E-07 -2.361775E-05  9.698131E-10 -2.629451E-06 -2.514077E-09 -5.671730E-05  0.000000E+00  0.000000E+00  0.000000E+00  0.000000E+00  0.000000E+00  0.000000E+00  0.000000E+00                                                                                                                                                                                                                                                                                                                                                                                                                                                                                              
  1.475000E+03  1.250000E+02 -5.425000E+03 -1.139493E+08 -9.889883E+07 -1.254315E+08  2.289581E+00 -1.545554E+04 -2.424943E+01 -7.430595E-06  1.481169E-07 -2.995772E-05  5.328573E-10 -3.596988E-06 -4.203235E-09 -3.724019E-05  0.000000E+00  0.000000E+00  0.000000E+00  0.000000E+00  0.000000E+00  0.000000E+00  0.000000E+00                                                                                                                                                                                                                                                                                                                                                                                                                                                                                              
  1.725000E+03  1.250000E+02 -5.425000E+03 -1.139068E+08 -9.909244E+07 -1.257895E+08  7.087475E-01 -9.318609E+03 -2.049294E+01  1.777179E-05  1.450905E-07 -3.590845E-05  1.649478E-10 -2.168732E-06 -3.552109E-09 -1.799158E-05  0.000000E+00  0.000000E+00  0.000000E+00  0.000000E+00  0.000000E+00  0.000000E+00  0.000000E+00                                                                                                                                                                                                                                                                                                                                                                                                                                                                                              
  1.975000E+03  1.250000E+02 -5.425000E+03 -1.138880E+08 -9.920363E+07 -1.259894E+08  2.898038E-02 -2.614103E+03 -6.075185E+00  3.176312E-05  1.433193E-07 -3.883194E-05  6.744643E-12 -6.083836E-07 -1.053032E-09 -6.925505E-06  0.000000E+00  0.000000E+00  0.000000E+00  0.000000E+00  0.000000E+00  0.000000E+00  0.000000E+00                                                                                                                                                                                                                                                                                                                                                                                                                                                                                              
  1.250000E+02  1.250000E+02 -5.225000E+03 -1.103036E+08 -9.609574E+07 -1.220322E+08  2.019728E+00  8.028737E+03  7.089472E+00  3.249363E-05  1.364434E-07 -3.620159E-05  4.700539E-10  1.868539E-06  1.228842E-09 -3.571520E-06  0.000000E+00  0.000000E+00  0.000000E+00  0.000000E+00  0.000000E+00  0.000000E+00  0.000000E+00                                                                                                                                                                                                                                                                                                                                                                                                                                                                                              
  3.750000E+02  1.250000E+02 -5.225000E+03 -1.103143E+08 -9.598151E+07 -1.218373E+08  4.189767E+00  2.721459E+04  2.336894E+01  1.884118E-05  1.384710E-07 -3.415491E-05  9.750900E-10  6.333687E-06  4.050617E-09 -1.517526E-05  0.000000E+00  0.000000E+00  0.000000E+00  0.000000E+00  0.000000E+00  0.000000E+00  0.000000E+00                                                                                                                                                                                                                                                                                                                                                                                                                                                                                              
  6.250000E+02  1.250000E+02 -5.225000E+03 -1.103386E+08 -9.576929E+07 -1.214707E+08  8.968851E+00  4.446412E+04  2.876304E+01 -6.900020E-06  1.419898E-07 -2.995802E-05  2.087333E-09  1.034819E-05  4.985594E-09 -3.671605E-05  0.000000E+00  0.000000E+00  0.000000E+00  0.000000E+00  0.000000E+00  0.000000E+00  0.000000E+00                                                                                                                                                                                                                                                                                                                                                                                                                                                                                              
  8.750000E+02  1.250000E+02 -5.225000E+03 -1.103708E+08 -9.554290E+07 -1.210768E+08  1.448694E+01  3.237301E+04  1.756310E+01 -3.495622E-05  1.451249E-07 -2.531617E-05  3.371566E-09  7.534214E-06  3.044270E-09 -6.012726E-05  0.000000E+00  0.000000E+00  0.000000E+00  0.000000E+00  0.000000E+00  0.000000E+00  0.000000E+00                                                                                                                                                                                                                                                                                                                                                                                                                                                                                              
  1.050000E+03  1.250000E+02 -5.225000E+03 -1.103838E+08 -9.544147E+07 -1.209012E+08  1.690908E+01  5.910930E-02  7.178931E-03 -4.739329E-05  1.463152E-07 -2.330307E-05  3.935273E-09  1.375659E-11  1.244348E-12 -7.055004E-05  0.000000E+00  0.000000E+00  0.000000E+00  0.000000E+00  0.000000E+00  0.000000E+00  0.000000E+00                                                                                                                                                                                                                                                                                                                                                                                                                                                                                              
  1.225000E+03  1.250000E+02 -5.225000E+03 -1.103708E+08 -9.554290E+07 -1.210768E+08  1.448381E+01 -3.237295E+04 -1.756239E+01 -3.495619E-05  1.451257E-07 -2.531618E-05  3.370837E-09 -7.534200E-06 -3.044147E-09 -6.012725E-05  0.000000E+00  0.000000E+00  0.000000E+00  0.000000E+00  0.000000E+00  0.000000E+00  0.000000E+00                                                                                                                                                                                                                                                                                                                                                                                                                                                                                              
  1.475000E+03  1.250000E+02 -5.225000E+03 -1.103386E+08 -9.576929E+07 -1.214707E+08  8.965781E+00 -4.446406E+04 -2.875763E+01 -6.899975E-06  1.419928E-07 -2.995805E-05  2.086618E-09 -1.034818E-05 -4.984656E-09 -3.671603E-05  0.000000E+00  0.000000E+00  0.000000E+00  0.000000E+00  0.000000E+00  0.000000E+00  0.000000E+00                                                                                                                                                                                                                                                                                                                                                                                                                                                                                              
  1.725000E+03  1.250000E+02 -5.225000E+03 -1.103143E+08 -9.598151E+07 -1.218373E+08  4.190118E+00 -2.721455E+04 -2.336808E+01  1.884123E-05  1.384771E-07 -3.415495E-05  9.751717E-10 -6.333679E-06 -4.050467E-09 -1.517524E-05  0.000000E+00  0.000000E+00  0.000000E+00  0.000000E+00  0.000000E+00  0.000000E+00  0.000000E+00                                                                                                                                                                                                                                                                                                                                                                                                                                                                                              
  1.975000E+03  1.250000E+02 -5.225000E+03 -1.103036E+08 -9.609574E+07 -1.220322E+08  2.022049E+00 -8.028726E+03 -7.091755E+00  3.249369E-05  1.364508E-07 -3.620163E-05  4.705942E-10 -1.868536E-06 -1.229238E-09 -3.571488E-06  0.000000E+00  0.000000E+00  0.000000E+00  0.000000E+00  0.000000E+00  0.000000E+00  0.000000E+00                                                                                                                                                                                                                                                                                                                                                                                                                                                                                              
  1.250000E+02  1.250000E+02 -4.975000E+03 -1.058101E+08 -9.220303E+07 -1.170877E+08  1.450126E+00  1.098707E+04  9.358033E+00  3.361777E-05  1.204080E-07 -3.419579E-05  3.374898E-10  2.557036E-06  1.622059E-09 -4.576069E-07  0.000000E+00  0.000000E+00  0.000000E+00  0.000000E+00  0.000000E+00  0.000000E+00  0.000000E+00                                                                                                                                                                                                                                                                                                                                                                                                                                                                                              
  3.750000E+02  1.250000E+02 -4.975000E+03 -1.058108E+08 -9.208878E+07 -1.169018E+08  5.363474E+00  3.890839E+04  2.978117E+01  2.083908E-05  1.229800E-07 -3.290805E-05  1.248248E-09  9.055200E-06  5.162070E-09 -1.194599E-05  0.000000E+00  0.000000E+00  0.000000E+00  0.000000E+00  0.000000E+00  0.000000E+00  0.000000E+00                                                                                                                                                                                                                                                                                                                                                                                                                                                                                              
  6.250000E+02  1.250000E+02 -4.975000E+03 -1.058212E+08 -9.185961E+07 -1.165229E+08  1.381551E+01  6.863126E+04  3.824061E+01 -5.591906E-06  1.275067E-07 -2.986915E-05  3.215303E-09  1.597264E-05  6.628373E-09 -3.533355E-05  0.000000E+00  0.000000E+00  0.000000E+00  0.000000E+00  0.000000E+00  0.000000E+00  0.000000E+00                                                                                                                                                                                                                                                                                                                                                                                                                                                                                              
  8.750000E+02  1.250000E+02 -4.975000E+03 -1.058427E+08 -9.158553E+07 -1.160623E+08  2.383097E+01  5.529140E+04  2.421186E+01 -3.802531E-05  1.316956E-07 -2.563095E-05  5.546213E-09  1.286804E-05  4.196722E-09 -6.352456E-05  0.000000E+00  0.000000E+00  0.000000E+00  0.000000E+00  0.000000E+00  0.000000E+00  0.000000E+00                                                                                                                                                                                                                                                                                                                                                                                                                                                                                              
  1.050000E+03  1.250000E+02 -4.975000E+03 -1.058641E+08 -9.145808E+07 -1.158435E+08  2.841228E+01  4.466814E-02  5.551486E-03 -5.419857E-05  1.333303E-07 -2.343366E-05  6.612429E-09  1.039568E-11  9.622576E-13 -7.749890E-05  0.000000E+00  0.000000E+00  0.000000E+00  0.000000E+00  0.000000E+00  0.000000E+00  0.000000E+00                                                                                                                                                                                                                                                                                                                                                                                                                                                                                              
  1.225000E+03  1.250000E+02 -4.975000E+03 -1.058427E+08 -9.158553E+07 -1.160623E+08  2.383074E+01 -5.529139E+04 -2.421322E+01 -3.802529E-05  1.316968E-07 -2.563096E-05  5.546160E-09 -1.286804E-05 -4.196958E-09 -6.352455E-05  0.000000E+00  0.000000E+00  0.000000E+00  0.000000E+00  0.000000E+00  0.000000E+00  0.000000E+00                                                                                                                                                                                                                                                                                                                                                                                                                                                                                              
  1.475000E+03  1.250000E+02 -4.975000E+03 -1.058212E+08 -9.185961E+07 -1.165229E+08  1.381760E+01 -6.863120E+04 -3.823705E+01 -5.591872E-06  1.275105E-07 -2.986917E-05  3.215789E-09 -1.597263E-05 -6.627755E-09 -3.533353E-05  0.000000E+00  0.000000E+00  0.000000E+00  0.000000E+00  0.000000E+00  0.000000E+00  0.000000E+00                                                                                                                                                                                                                                                                                                                                                                                                                                                                                              
  1.725000E+03  1.250000E+02 -4.975000E+03 -1.058108E+08 -9.208878E+07 -1.169018E+08  5.367438E+00 -3.890836E+04 -2.977847E+01  2.083912E-05  1.229872E-07 -3.290808E-05  1.249171E-09 -9.055194E-06 -5.161601E-09 -1.194597E-05  0.000000E+00  0.000000E+00  0.000000E+00  0.000000E+00  0.000000E+00  0.000000E+00  0.000000E+00                                                                                                                                                                                                                                                                                                                                                                                                                                                                                              
  1.975000E+03  1.250000E+02 -4.975000E+03 -1.058101E+08 -9.220303E+07 -1.170877E+08  1.455308E+00 -1.098707E+04 -9.358757E+00  3.361782E-05  1.204167E-07 -3.419582E-05  3.386957E-10 -2.557035E-06 -1.622185E-09 -4.575793E-07  0.000000E+00  0.000000E+00  0.000000E+00  0.000000E+00  0.000000E+00  0.000000E+00  0.000000E+00                                                                                                                                                                                                                                                                                                                                                                                                                                                                                              
  1.250000E+02  1.250000E+02 -4.725000E+03 -1.013307E+08 -8.830926E+07 -1.121328E+08 -6.139638E+00  6.470922E+03  1.190697E+01  3.329676E-05  9.558911E-08 -3.159507E-05 -1.428886E-09  1.505986E-06  2.063874E-09  1.797274E-06  0.000000E+00  0.000000E+00  0.000000E+00  0.000000E+00  0.000000E+00  0.000000E+00  0.000000E+00                                                                                                                                                                                                                                                                                                                                                                                                                                                                                              
  3.750000E+02  1.250000E+02 -4.725000E+03 -1.013088E+08 -8.819507E+07 -1.119641E+08 -1.388305E+00  2.861964E+04  3.729201E+01  2.256778E-05  9.873421E-08 -3.164810E-05 -3.231022E-10  6.660688E-06  6.463948E-09 -8.981581E-06  0.000000E+00  0.000000E+00  0.000000E+00  0.000000E+00  0.000000E+00  0.000000E+00  0.000000E+00                                                                                                                                                                                                                                                                                                                                                                                                                                                                                              
  6.250000E+02  1.250000E+02 -4.725000E+03 -1.012727E+08 -8.794949E+07 -1.115852E+08  9.284325E+00  7.747349E+04  4.972937E+01 -1.377575E-06  1.042443E-07 -3.023145E-05  2.160753E-09  1.803051E-05  8.619758E-09 -3.150478E-05  0.000000E+00  0.000000E+00  0.000000E+00  0.000000E+00  0.000000E+00  0.000000E+00  0.000000E+00                                                                                                                                                                                                                                                                                                                                                                                                                                                                                              
  8.750000E+02  1.250000E+02 -4.725000E+03 -1.013093E+08 -8.761762E+07 -1.110270E+08  2.276730E+01  8.220154E+04  3.292688E+01 -4.170835E-05  1.094181E-07 -2.531797E-05  5.298665E-09  1.913087E-05  5.707327E-09 -6.691690E-05  0.000000E+00  0.000000E+00  0.000000E+00  0.000000E+00  0.000000E+00  0.000000E+00  0.000000E+00                                                                                                                                                                                                                                                                                                                                                                                                                                                                                              
  1.050000E+03  1.250000E+02 -4.725000E+03 -1.013184E+08 -8.742474E+07 -1.107003E+08  2.936403E+01  3.660433E-02  4.426110E-03 -6.389334E-05  1.114772E-07 -2.189875E-05  6.833931E-09  8.518973E-12  7.671924E-13 -8.568062E-05  0.000000E+00  0.000000E+00  0.000000E+00  0.000000E+00  0.000000E+00  0.000000E+00  0.000000E+00                                                                                                                                                                                                                                                                                                                                                                                                                                                                                              
  1.225000E+03  1.250000E+02 -4.725000E+03 -1.013093E+08 -8.761762E+07 -1.110270E+08  2.276846E+01 -8.220157E+04 -3.292394E+01 -4.170833E-05  1.094203E-07 -2.531798E-05  5.298935E-09 -1.913088E-05 -5.706817E-09 -6.691689E-05  0.000000E+00  0.000000E+00  0.000000E+00  0.000000E+00  0.000000E+00  0.000000E+00  0.000000E+00                                                                                                                                                                                                                                                                                                                                                                                                                                                                                              
  1.475000E+03  1.250000E+02 -4.725000E+03 -1.012727E+08 -8.794949E+07 -1.115852E+08  9.288524E+00 -7.747345E+04 -4.972451E+01 -1.377551E-06  1.042498E-07 -3.023147E-05  2.161731E-09 -1.803050E-05 -8.618915E-09 -3.150477E-05  0.000000E+00  0.000000E+00  0.000000E+00  0.000000E+00  0.000000E+00  0.000000E+00  0.000000E+00                                                                                                                                                                                                                                                                                                                                                                                                                                                                                              
  1.725000E+03  1.250000E+02 -4.725000E+03 -1.013088E+08 -8.819507E+07 -1.119641E+08 -1.382776E+00 -2.861963E+04 -3.728793E+01  2.256781E-05  9.874287E-08 -3.164811E-05 -3.218153E-10 -6.660684E-06 -6.463242E-09 -8.981561E-06  0.000000E+00  0.000000E+00  0.000000E+00  0.000000E+00  0.000000E+00  0.000000E+00  0.000000E+00                                                                                                                                                                                                                                                                                                                                                                                                                                                                                              