Title="TREACTMECH V1.0-OMP-MPI stress-strain.tec: Total Stresses (Pa), Strains"                                                                                                                                                                                                                                                                                                                                                                                                                                                                                                                                                                                                                                                                                                                                                 
Variables= "X(m)"     "Y(m)"      "Z(m)"    "Sigma_xx"    "Sigma_yy"    "Sigma_zz"    "Sigma_yz"    "Sigma_xz"    "Sigma_xy"   "Strain_xx"   "Strain_yy"   "Strain_zz"   "Strain_yz"   "Strain_xz"   "Strain_xy"  "Vol_Strain"   "E_fail_xx"   "E_fail_yy"   "E_fail_zz"  "E_fail_yz2"  "E_fail_xz2"  "E_fail_xy2"  "E_fail_vol"                                                                                                                                                                                                                                                                                                                                                                                                                                                                                                
Zone T= "1.00000000E+11 sec" I=     9 J=    10 K=    23 F=Point
  1.250000E+02  1.250000E+02 -5.425000E+03 -1.111685E+08 -9.650206E+07 -1.260193E+08 -6.974087E-01  3.327329E+03  6.908024E+00  3.331142E-05  1.374868E-07 -2.755621E-04 -1.623089E-10  7.743736E-07  1.197391E-09 -2.421132E-04  0.000000E+00  0.000000E+00  0.000000E+00  0.000000E+00  0.000000E+00  0.000000E+00  0.000000E+00                                                                                                                                                                                                                                                                                                                                                                                                                                                                                              
  3.750000E+02  1.250000E+02 -5.425000E+03 -1.111923E+08 -9.638872E+07 -1.258072E+08 -1.167190E-01  1.167296E+04  2.254424E+01  1.869874E-05  1.395083E-07 -2.717751E-04 -2.716417E-11  2.716664E-06  3.907668E-09 -2.529369E-04  0.000000E+00  0.000000E+00  0.000000E+00  0.000000E+00  0.000000E+00  0.000000E+00  0.000000E+00                                                                                                                                                                                                                                                                                                                                                                                                                                                                                              
  6.250000E+02  1.250000E+02 -5.425000E+03 -1.112452E+08 -9.619101E+07 -1.254253E+08  1.301433E+00  1.909024E+04  2.639922E+01 -7.759185E-06  1.429005E-07 -2.640986E-04  3.028842E-10  4.442898E-06  4.575864E-09 -2.717148E-04  0.000000E+00  0.000000E+00  0.000000E+00  0.000000E+00  0.000000E+00  0.000000E+00  0.000000E+00                                                                                                                                                                                                                                                                                                                                                                                                                                                                                              
  8.750000E+02  1.250000E+02 -5.425000E+03 -1.113057E+08 -9.599286E+07 -1.250359E+08  3.042073E+00  1.410589E+04  1.557424E+01 -3.493570E-05  1.458064E-07 -2.558601E-04  7.079858E-10  3.282882E-06  2.699534E-09 -2.906500E-04  0.000000E+00  0.000000E+00  0.000000E+00  0.000000E+00  0.000000E+00  0.000000E+00  0.000000E+00                                                                                                                                                                                                                                                                                                                                                                                                                                                                                              
  1.050000E+03  1.250000E+02 -5.425000E+03 -1.113319E+08 -9.590826E+07 -1.248698E+08  3.808664E+00 -1.329440E-02 -1.283639E-02 -4.657691E-05  1.468825E-07 -2.523693E-04  8.863955E-10 -3.094023E-12 -2.224974E-12 -2.987993E-04  0.000000E+00  0.000000E+00  0.000000E+00  0.000000E+00  0.000000E+00  0.000000E+00  0.000000E+00                                                                                                                                                                                                                                                                                                                                                                                                                                                                                              
  1.225000E+03  1.250000E+02 -5.425000E+03 -1.113057E+08 -9.599286E+07 -1.250359E+08  3.050614E+00 -1.410594E+04 -1.560843E+01 -3.493568E-05  1.458048E-07 -2.558601E-04  7.099734E-10 -3.282895E-06 -2.705461E-09 -2.906500E-04  0.000000E+00  0.000000E+00  0.000000E+00  0.000000E+00  0.000000E+00  0.000000E+00  0.000000E+00                                                                                                                                                                                                                                                                                                                                                                                                                                                                                              
  1.475000E+03  1.250000E+02 -5.425000E+03 -1.112452E+08 -9.619101E+07 -1.254253E+08  1.312644E+00 -1.909028E+04 -2.640659E+01 -7.759136E-06  1.428999E-07 -2.640986E-04  3.054935E-10 -4.442906E-06 -4.577142E-09 -2.717148E-04  0.000000E+00  0.000000E+00  0.000000E+00  0.000000E+00  0.000000E+00  0.000000E+00  0.000000E+00                                                                                                                                                                                                                                                                                                                                                                                                                                                                                              
  1.725000E+03  1.250000E+02 -5.425000E+03 -1.111923E+08 -9.638872E+07 -1.258072E+08 -1.088229E-01 -1.167299E+04 -2.254675E+01  1.869881E-05  1.395119E-07 -2.717752E-04 -2.532650E-11 -2.716670E-06 -3.908103E-09 -2.529368E-04  0.000000E+00  0.000000E+00  0.000000E+00  0.000000E+00  0.000000E+00  0.000000E+00  0.000000E+00                                                                                                                                                                                                                                                                                                                                                                                                                                                                                              
  1.975000E+03  1.250000E+02 -5.425000E+03 -1.111685E+08 -9.650206E+07 -1.260193E+08 -6.905277E-01 -3.327339E+03 -6.912314E+00  3.331150E-05  1.374921E-07 -2.755622E-04 -1.607074E-10 -7.743760E-07 -1.198134E-09 -2.421132E-04  0.000000E+00  0.000000E+00  0.000000E+00  0.000000E+00  0.000000E+00  0.000000E+00  0.000000E+00                                                                                                                                                                                                                                                                                                                                                                                                                                                                                              
  1.250000E+02  1.250000E+02 -5.225000E+03 -1.075506E+08 -9.336333E+07 -1.220650E+08  2.523185E+00  1.080353E+04  7.855377E+00  3.427202E-05  1.304820E-07 -2.758665E-04  5.872243E-10  2.514320E-06  1.361599E-09 -2.414640E-04  0.000000E+00  0.000000E+00  0.000000E+00  0.000000E+00  0.000000E+00  0.000000E+00  0.000000E+00                                                                                                                                                                                                                                                                                                                                                                                                                                                                                              
  3.750000E+02  1.250000E+02 -5.225000E+03 -1.075671E+08 -9.324731E+07 -1.218586E+08  4.400174E+00  3.586583E+04  2.520995E+01  1.996725E-05  1.327355E-07 -2.729685E-04  1.024058E-09  8.347103E-06  4.369724E-09 -2.528685E-04  0.000000E+00  0.000000E+00  0.000000E+00  0.000000E+00  0.000000E+00  0.000000E+00  0.000000E+00                                                                                                                                                                                                                                                                                                                                                                                                                                                                                              
  6.250000E+02  1.250000E+02 -5.225000E+03 -1.076025E+08 -9.303044E+07 -1.214655E+08  8.682274E+00  5.882397E+04  3.062852E+01 -7.144533E-06  1.365756E-07 -2.668734E-04  2.020637E-09  1.369018E-05  5.308944E-09 -2.738814E-04  0.000000E+00  0.000000E+00  0.000000E+00  0.000000E+00  0.000000E+00  0.000000E+00  0.000000E+00                                                                                                                                                                                                                                                                                                                                                                                                                                                                                              
  8.750000E+02  1.250000E+02 -5.225000E+03 -1.076512E+08 -9.279914E+07 -1.210388E+08  1.377133E+01  4.393734E+04  1.847765E+01 -3.705320E-05  1.399518E-07 -2.598170E-04  3.205019E-09  1.022560E-05  3.202793E-09 -2.967302E-04  0.000000E+00  0.000000E+00  0.000000E+00  0.000000E+00  0.000000E+00  0.000000E+00  0.000000E+00                                                                                                                                                                                                                                                                                                                                                                                                                                                                                              
  1.050000E+03  1.250000E+02 -5.225000E+03 -1.076686E+08 -9.269383E+07 -1.208459E+08  1.604484E+01  3.843741E-02 -7.963347E-03 -5.020814E-05  1.412216E-07 -2.566373E-04  3.734136E-09  8.945591E-12 -1.380314E-12 -3.067043E-04  0.000000E+00  0.000000E+00  0.000000E+00  0.000000E+00  0.000000E+00  0.000000E+00  0.000000E+00                                                                                                                                                                                                                                                                                                                                                                                                                                                                                              
  1.225000E+03  1.250000E+02 -5.225000E+03 -1.076512E+08 -9.279914E+07 -1.210388E+08  1.377900E+01 -4.393731E+04 -1.850169E+01 -3.705318E-05  1.399517E-07 -2.598170E-04  3.206804E-09 -1.022559E-05 -3.206960E-09 -2.967302E-04  0.000000E+00  0.000000E+00  0.000000E+00  0.000000E+00  0.000000E+00  0.000000E+00  0.000000E+00                                                                                                                                                                                                                                                                                                                                                                                                                                                                                              
  1.475000E+03  1.250000E+02 -5.225000E+03 -1.076025E+08 -9.303044E+07 -1.214655E+08  8.693684E+00 -5.882390E+04 -3.063222E+01 -7.144488E-06  1.365771E-07 -2.668734E-04  2.023293E-09 -1.369017E-05 -5.309586E-09 -2.738813E-04  0.000000E+00  0.000000E+00  0.000000E+00  0.000000E+00  0.000000E+00  0.000000E+00  0.000000E+00                                                                                                                                                                                                                                                                                                                                                                                                                                                                                              
  1.725000E+03  1.250000E+02 -5.225000E+03 -1.075671E+08 -9.324731E+07 -1.218586E+08  4.409028E+00 -3.586579E+04 -2.520799E+01  1.996731E-05  1.327407E-07 -2.729685E-04  1.026119E-09 -8.347092E-06 -4.369386E-09 -2.528685E-04  0.000000E+00  0.000000E+00  0.000000E+00  0.000000E+00  0.000000E+00  0.000000E+00  0.000000E+00                                                                                                                                                                                                                                                                                                                                                                                                                                                                                              
  1.975000E+03  1.250000E+02 -5.225000E+03 -1.075506E+08 -9.336333E+07 -1.220650E+08  2.530711E+00 -1.080352E+04 -7.856634E+00  3.427208E-05  1.304887E-07 -2.758666E-04  5.889759E-10 -2.514317E-06 -1.361817E-09 -2.414640E-04  0.000000E+00  0.000000E+00  0.000000E+00  0.000000E+00  0.000000E+00  0.000000E+00  0.000000E+00                                                                                                                                                                                                                                                                                                                                                                                                                                                                                              
  1.250000E+02  1.250000E+02 -4.975000E+03 -1.030199E+08 -8.944131E+07 -1.171293E+08  7.740716E+00  1.644053E+04  9.945412E+00  3.607931E-05  1.150368E-07 -2.771543E-04  1.801507E-09  3.826226E-06  1.723871E-09 -2.409600E-04  0.000000E+00  0.000000E+00  0.000000E+00  0.000000E+00  0.000000E+00  0.000000E+00  0.000000E+00                                                                                                                                                                                                                                                                                                                                                                                                                                                                                              
  3.750000E+02  1.250000E+02 -4.975000E+03 -1.030264E+08 -8.932549E+07 -1.169325E+08  1.101841E+01  5.718084E+04  3.106864E+01  2.266496E-05  1.177756E-07 -2.750615E-04  2.564330E-09  1.330777E-05  5.385231E-09 -2.522787E-04  0.000000E+00  0.000000E+00  0.000000E+00  0.000000E+00  0.000000E+00  0.000000E+00  0.000000E+00                                                                                                                                                                                                                                                                                                                                                                                                                                                                                              
  6.250000E+02  1.250000E+02 -4.975000E+03 -1.030560E+08 -8.909350E+07 -1.165251E+08  1.839632E+01  1.006294E+05  3.935581E+01 -5.683375E-06  1.225160E-07 -2.697892E-04  4.281400E-09  2.341962E-05  6.821673E-09 -2.753501E-04  0.000000E+00  0.000000E+00  0.000000E+00  0.000000E+00  0.000000E+00  0.000000E+00  0.000000E+00                                                                                                                                                                                                                                                                                                                                                                                                                                                                                              
  8.750000E+02  1.250000E+02 -4.975000E+03 -1.031011E+08 -8.880869E+07 -1.160052E+08  2.746903E+01  8.772518E+04  2.468256E+01 -4.108936E-05  1.268470E-07 -2.613464E-04  6.392905E-09  2.041640E-05  4.278311E-09 -3.023089E-04  0.000000E+00  0.000000E+00  0.000000E+00  0.000000E+00  0.000000E+00  0.000000E+00  0.000000E+00                                                                                                                                                                                                                                                                                                                                                                                                                                                                                              
  1.050000E+03  1.250000E+02 -4.975000E+03 -1.031522E+08 -8.868091E+07 -1.157557E+08  3.171072E+01  3.814664E-02 -1.776072E-03 -5.985808E-05  1.285245E-07 -2.565174E-04  7.380079E-09  8.877918E-12 -3.078525E-13 -3.162470E-04  0.000000E+00  0.000000E+00  0.000000E+00  0.000000E+00  0.000000E+00  0.000000E+00  0.000000E+00                                                                                                                                                                                                                                                                                                                                                                                                                                                                                              
  1.225000E+03  1.250000E+02 -4.975000E+03 -1.031011E+08 -8.880869E+07 -1.160052E+08  2.747465E+01 -8.772517E+04 -2.469299E+01 -4.108935E-05  1.268480E-07 -2.613464E-04  6.394212E-09 -2.041640E-05 -4.280118E-09 -3.023089E-04  0.000000E+00  0.000000E+00  0.000000E+00  0.000000E+00  0.000000E+00  0.000000E+00  0.000000E+00                                                                                                                                                                                                                                                                                                                                                                                                                                                                                              
  1.475000E+03  1.250000E+02 -4.975000E+03 -1.030560E+08 -8.909350E+07 -1.165251E+08  1.840713E+01 -1.006294E+05 -3.935519E+01 -5.683340E-06  1.225196E-07 -2.697892E-04  4.283915E-09 -2.341961E-05 -6.821566E-09 -2.753501E-04  0.000000E+00  0.000000E+00  0.000000E+00  0.000000E+00  0.000000E+00  0.000000E+00  0.000000E+00                                                                                                                                                                                                                                                                                                                                                                                                                                                                                              
  1.725000E+03  1.250000E+02 -4.975000E+03 -1.030264E+08 -8.932549E+07 -1.169325E+08  1.102931E+01 -5.718081E+04 -3.106513E+01  2.266501E-05  1.177825E-07 -2.750615E-04  2.566865E-09 -1.330777E-05 -5.384623E-09 -2.522787E-04  0.000000E+00  0.000000E+00  0.000000E+00  0.000000E+00  0.000000E+00  0.000000E+00  0.000000E+00                                                                                                                                                                                                                                                                                                                                                                                                                                                                                              
  1.975000E+03  1.250000E+02 -4.975000E+03 -1.030199E+08 -8.944131E+07 -1.171293E+08  7.750284E+00 -1.644052E+04 -9.945504E+00  3.607937E-05  1.150453E-07 -2.771544E-04  1.803734E-09 -3.826224E-06 -1.723887E-09 -2.409600E-04  0.000000E+00  0.000000E+00  0.000000E+00  0.000000E+00  0.000000E+00  0.000000E+00  0.000000E+00                                                                                                                                                                                                                                                                                                                                                                                                                                                                                              
  1.250000E+02  1.250000E+02 -4.725000E+03 -9.850415E+07 -8.552819E+07 -1.121885E+08  8.443843E+00  1.561549E+04  1.195944E+01  3.723189E-05  9.256162E-08 -2.774552E-04  1.965147E-09  3.634215E-06  2.072969E-09 -2.401308E-04  0.000000E+00  0.000000E+00  0.000000E+00  0.000000E+00  0.000000E+00  0.000000E+00  0.000000E+00                                                                                                                                                                                                                                                                                                                                                                                                                                                                                              
  3.750000E+02  1.250000E+02 -4.725000E+03 -9.849075E+07 -8.541562E+07 -1.120169E+08  1.179668E+01  5.686692E+04  3.717219E+01  2.590999E-05  9.571868E-08 -2.771146E-04  2.745458E-09  1.323472E-05  6.443179E-09 -2.511089E-04  0.000000E+00  0.000000E+00  0.000000E+00  0.000000E+00  0.000000E+00  0.000000E+00  0.000000E+00                                                                                                                                                                                                                                                                                                                                                                                                                                                                                              
  6.250000E+02  1.250000E+02 -4.725000E+03 -9.846499E+07 -8.516390E+07 -1.116073E+08  2.039455E+01  1.408027E+05  4.919722E+01  5.340172E-07  1.012050E-07 -2.735668E-04  4.746450E-09  3.276919E-05  8.527519E-09 -2.729316E-04  0.000000E+00  0.000000E+00  0.000000E+00  0.000000E+00  0.000000E+00  0.000000E+00  0.000000E+00                                                                                                                                                                                                                                                                                                                                                                                                                                                                                              
  8.750000E+02  1.250000E+02 -4.725000E+03 -9.860325E+07 -8.482932E+07 -1.109384E+08  3.227803E+01  1.696317E+05  3.247257E+01 -4.884256E-05  1.063296E-07 -2.592990E-04  7.512108E-09  3.947861E-05  5.628578E-09 -3.080352E-04  0.000000E+00  0.000000E+00  0.000000E+00  0.000000E+00  0.000000E+00  0.000000E+00  0.000000E+00                                                                                                                                                                                                                                                                                                                                                                                                                                                                                              
  1.050000E+03  1.250000E+02 -4.725000E+03 -9.861162E+07 -8.459942E+07 -1.104891E+08  3.835414E+01  3.961863E-02  3.280943E-03 -7.416692E-05  1.083662E-07 -2.484641E-04  8.926211E-09  9.220496E-12  5.686969E-13 -3.225226E-04  0.000000E+00  0.000000E+00  0.000000E+00  0.000000E+00  0.000000E+00  0.000000E+00  0.000000E+00                                                                                                                                                                                                                                                                                                                                                                                                                                                                                              
  1.225000E+03  1.250000E+02 -4.725000E+03 -9.860325E+07 -8.482932E+07 -1.109384E+08  3.228284E+01 -1.696317E+05 -3.247091E+01 -4.884255E-05  1.063319E-07 -2.592990E-04  7.513228E-09 -3.947862E-05 -5.628291E-09 -3.080352E-04  0.000000E+00  0.000000E+00  0.000000E+00  0.000000E+00  0.000000E+00  0.000000E+00  0.000000E+00                                                                                                                                                                                                                                                                                                                                                                                                                                                                                              
  1.475000E+03  1.250000E+02 -4.725000E+03 -9.846499E+07 -8.516390E+07 -1.116073E+08  2.040417E+01 -1.408026E+05 -4.919256E+01  5.340416E-07  1.012108E-07 -2.735669E-04  4.748690E-09 -3.276919E-05 -8.526710E-09 -2.729316E-04  0.000000E+00  0.000000E+00  0.000000E+00  0.000000E+00  0.000000E+00  0.000000E+00  0.000000E+00                                                                                                                                                                                                                                                                                                                                                                                                                                                                                              
  1.725000E+03  1.250000E+02 -4.725000E+03 -9.849075E+07 -8.541562E+07 -1.120169E+08  1.180724E+01 -5.686692E+04 -3.716823E+01  2.591002E-05  9.572765E-08 -2.771146E-04  2.747915E-09 -1.323471E-05 -6.442494E-09 -2.511089E-04  0.000000E+00  0.000000E+00  0.000000E+00  0.000000E+00  0.000000E+00  0.000000E+00  0.000000E+00                                                                                                                                                                                                                                                                                                                                                                                                                                                                                              