Title="TOUGHREACT V3.30-OMP flowdata.tec: P,T,SAT & Other Variables"                                                                                                                                                                                                                                                                                                                                                                                                                                                                                                                                                                                                                                                                                                                                                            
Variables= "X(m)"     "Y(m)"      "Z(m)"       "P(Pa)"        "T(C)"      "SatGas"      "SatLiq"          "X1"          "X2"    "Pcap(Pa)"  "DGas_kg/m3"  "DLiq_kg/m3"    "Porosity"  "Perm_X(m2)"  "Perm_Y(m2)"  "Perm_Z(m2)"    "Krel_Gas"    "Krel_Liq"                                                                                                                                                                                                                                                                                                                                                                                                                                                                                                                                                                      
Zone T= "1.00000000E+09 sec" I=     9 J=    10 K=    23 F=Point
  1.250000E+02  1.250000E+02 -5.425000E+03  5.706926E+07  2.316658E+02  0.000000E+00  1.000000E+00  1.000000E+00  0.000000E+00  0.000000E+00  1.442797E+01  8.687335E+02  1.986092E-01  1.000000E-16  1.000000E-16  1.000000E-16  0.000000E+00  1.000000E+00                                                                                                                                                                                                                                                                                                                                                                                                                                                                                                                                                                    
  3.750000E+02  1.250000E+02 -5.425000E+03  5.706776E+07  2.316657E+02  0.000000E+00  1.000000E+00  1.000000E+00  0.000000E+00  0.000000E+00  1.442795E+01  8.687325E+02  1.986083E-01  1.000000E-16  1.000000E-16  1.000000E-16  0.000000E+00  1.000000E+00                                                                                                                                                                                                                                                                                                                                                                                                                                                                                                                                                                    
  6.250000E+02  1.250000E+02 -5.425000E+03  5.706560E+07  2.316657E+02  0.000000E+00  1.000000E+00  1.000000E+00  0.000000E+00  0.000000E+00  1.442793E+01  8.687312E+02  1.986069E-01  1.000000E-16  1.000000E-16  1.000000E-16  0.000000E+00  1.000000E+00                                                                                                                                                                                                                                                                                                                                                                                                                                                                                                                                                                    
  8.750000E+02  1.250000E+02 -5.425000E+03  5.706397E+07  2.316668E+02  0.000000E+00  1.000000E+00  1.000000E+00  0.000000E+00  0.000000E+00  1.442822E+01  8.687289E+02  1.986059E-01  1.000000E-16  1.000000E-16  1.000000E-16  0.000000E+00  1.000000E+00                                                                                                                                                                                                                                                                                                                                                                                                                                                                                                                                                                    
  1.050000E+03  1.250000E+02 -5.425000E+03  5.706384E+07  2.317193E+02  0.000000E+00  1.000000E+00  1.000000E+00  0.000000E+00  0.000000E+00  1.444203E+01  8.686716E+02  1.986061E-01  1.000000E-16  1.000000E-16  1.000000E-16  0.000000E+00  1.000000E+00                                                                                                                                                                                                                                                                                                                                                                                                                                                                                                                                                                    
  1.225000E+03  1.250000E+02 -5.425000E+03  5.706397E+07  2.316668E+02  0.000000E+00  1.000000E+00  1.000000E+00  0.000000E+00  0.000000E+00  1.442822E+01  8.687289E+02  1.986059E-01  1.000000E-16  1.000000E-16  1.000000E-16  0.000000E+00  1.000000E+00                                                                                                                                                                                                                                                                                                                                                                                                                                                                                                                                                                    
  1.475000E+03  1.250000E+02 -5.425000E+03  5.706560E+07  2.316657E+02  0.000000E+00  1.000000E+00  1.000000E+00  0.000000E+00  0.000000E+00  1.442793E+01  8.687312E+02  1.986069E-01  1.000000E-16  1.000000E-16  1.000000E-16  0.000000E+00  1.000000E+00                                                                                                                                                                                                                                                                                                                                                                                                                                                                                                                                                                    
  1.725000E+03  1.250000E+02 -5.425000E+03  5.706776E+07  2.316657E+02  0.000000E+00  1.000000E+00  1.000000E+00  0.000000E+00  0.000000E+00  1.442795E+01  8.687325E+02  1.986083E-01  1.000000E-16  1.000000E-16  1.000000E-16  0.000000E+00  1.000000E+00                                                                                                                                                                                                                                                                                                                                                                                                                                                                                                                                                                    
  1.975000E+03  1.250000E+02 -5.425000E+03  5.706926E+07  2.316658E+02  0.000000E+00  1.000000E+00  1.000000E+00  0.000000E+00  0.000000E+00  1.442797E+01  8.687335E+02  1.986092E-01  1.000000E-16  1.000000E-16  1.000000E-16  0.000000E+00  1.000000E+00                                                                                                                                                                                                                                                                                                                                                                                                                                                                                                                                                                    
  1.250000E+02  1.250000E+02 -5.225000E+03  5.536233E+07  2.238942E+02  0.000000E+00  1.000000E+00  1.000000E+00  0.000000E+00  0.000000E+00  1.250345E+01  8.759837E+02  1.988027E-01  1.000000E-16  1.000000E-16  1.000000E-16  0.000000E+00  1.000000E+00                                                                                                                                                                                                                                                                                                                                                                                                                                                                                                                                                                    
  3.750000E+02  1.250000E+02 -5.225000E+03  5.536048E+07  2.238941E+02  0.000000E+00  1.000000E+00  1.000000E+00  0.000000E+00  0.000000E+00  1.250344E+01  8.759825E+02  1.988015E-01  1.000000E-16  1.000000E-16  1.000000E-16  0.000000E+00  1.000000E+00                                                                                                                                                                                                                                                                                                                                                                                                                                                                                                                                                                    
  6.250000E+02  1.250000E+02 -5.225000E+03  5.535784E+07  2.238941E+02  0.000000E+00  1.000000E+00  1.000000E+00  0.000000E+00  0.000000E+00  1.250342E+01  8.759809E+02  1.987998E-01  1.000000E-16  1.000000E-16  1.000000E-16  0.000000E+00  1.000000E+00                                                                                                                                                                                                                                                                                                                                                                                                                                                                                                                                                                    
  8.750000E+02  1.250000E+02 -5.225000E+03  5.535578E+07  2.238940E+02  0.000000E+00  1.000000E+00  1.000000E+00  0.000000E+00  0.000000E+00  1.250341E+01  8.759796E+02  1.987985E-01  1.000000E-16  1.000000E-16  1.000000E-16  0.000000E+00  1.000000E+00                                                                                                                                                                                                                                                                                                                                                                                                                                                                                                                                                                    
  1.050000E+03  1.250000E+02 -5.225000E+03  5.535554E+07  2.238950E+02  0.000000E+00  1.000000E+00  1.000000E+00  0.000000E+00  0.000000E+00  1.250363E+01  8.759784E+02  1.987984E-01  1.000000E-16  1.000000E-16  1.000000E-16  0.000000E+00  1.000000E+00                                                                                                                                                                                                                                                                                                                                                                                                                                                                                                                                                                    
  1.225000E+03  1.250000E+02 -5.225000E+03  5.535578E+07  2.238940E+02  0.000000E+00  1.000000E+00  1.000000E+00  0.000000E+00  0.000000E+00  1.250341E+01  8.759796E+02  1.987985E-01  1.000000E-16  1.000000E-16  1.000000E-16  0.000000E+00  1.000000E+00                                                                                                                                                                                                                                                                                                                                                                                                                                                                                                                                                                    
  1.475000E+03  1.250000E+02 -5.225000E+03  5.535784E+07  2.238941E+02  0.000000E+00  1.000000E+00  1.000000E+00  0.000000E+00  0.000000E+00  1.250342E+01  8.759809E+02  1.987998E-01  1.000000E-16  1.000000E-16  1.000000E-16  0.000000E+00  1.000000E+00                                                                                                                                                                                                                                                                                                                                                                                                                                                                                                                                                                    
  1.725000E+03  1.250000E+02 -5.225000E+03  5.536048E+07  2.238941E+02  0.000000E+00  1.000000E+00  1.000000E+00  0.000000E+00  0.000000E+00  1.250344E+01  8.759825E+02  1.988015E-01  1.000000E-16  1.000000E-16  1.000000E-16  0.000000E+00  1.000000E+00                                                                                                                                                                                                                                                                                                                                                                                                                                                                                                                                                                    
  1.975000E+03  1.250000E+02 -5.225000E+03  5.536233E+07  2.238942E+02  0.000000E+00  1.000000E+00  1.000000E+00  0.000000E+00  0.000000E+00  1.250345E+01  8.759837E+02  1.988027E-01  1.000000E-16  1.000000E-16  1.000000E-16  0.000000E+00  1.000000E+00                                                                                                                                                                                                                                                                                                                                                                                                                                                                                                                                                                    
  1.250000E+02  1.250000E+02 -4.975000E+03  5.321215E+07  2.138896E+02  0.000000E+00  1.000000E+00  1.000000E+00  0.000000E+00  0.000000E+00  1.034482E+01  8.851392E+02  1.990325E-01  1.000000E-16  1.000000E-16  1.000000E-16  0.000000E+00  1.000000E+00                                                                                                                                                                                                                                                                                                                                                                                                                                                                                                                                                                    
  3.750000E+02  1.250000E+02 -4.975000E+03  5.320897E+07  2.138867E+02  0.000000E+00  1.000000E+00  1.000000E+00  0.000000E+00  0.000000E+00  1.034424E+01  8.851403E+02  1.990304E-01  1.000000E-16  1.000000E-16  1.000000E-16  0.000000E+00  1.000000E+00                                                                                                                                                                                                                                                                                                                                                                                                                                                                                                                                                                    
  6.250000E+02  1.250000E+02 -4.975000E+03  5.320449E+07  2.138831E+02  0.000000E+00  1.000000E+00  1.000000E+00  0.000000E+00  0.000000E+00  1.034352E+01  8.851412E+02  1.990276E-01  1.000000E-16  1.000000E-16  1.000000E-16  0.000000E+00  1.000000E+00                                                                                                                                                                                                                                                                                                                                                                                                                                                                                                                                                                    
  8.750000E+02  1.250000E+02 -4.975000E+03  5.320087E+07  2.138786E+02  0.000000E+00  1.000000E+00  1.000000E+00  0.000000E+00  0.000000E+00  1.034263E+01  8.851436E+02  1.990252E-01  1.000000E-16  1.000000E-16  1.000000E-16  0.000000E+00  1.000000E+00                                                                                                                                                                                                                                                                                                                                                                                                                                                                                                                                                                    
  1.050000E+03  1.250000E+02 -4.975000E+03  5.320041E+07  2.138775E+02  0.000000E+00  1.000000E+00  1.000000E+00  0.000000E+00  0.000000E+00  1.034241E+01  8.851444E+02  1.990249E-01  1.000000E-16  1.000000E-16  1.000000E-16  0.000000E+00  1.000000E+00                                                                                                                                                                                                                                                                                                                                                                                                                                                                                                                                                                    
  1.225000E+03  1.250000E+02 -4.975000E+03  5.320087E+07  2.138786E+02  0.000000E+00  1.000000E+00  1.000000E+00  0.000000E+00  0.000000E+00  1.034263E+01  8.851436E+02  1.990252E-01  1.000000E-16  1.000000E-16  1.000000E-16  0.000000E+00  1.000000E+00                                                                                                                                                                                                                                                                                                                                                                                                                                                                                                                                                                    
  1.475000E+03  1.250000E+02 -4.975000E+03  5.320449E+07  2.138831E+02  0.000000E+00  1.000000E+00  1.000000E+00  0.000000E+00  0.000000E+00  1.034352E+01  8.851412E+02  1.990276E-01  1.000000E-16  1.000000E-16  1.000000E-16  0.000000E+00  1.000000E+00                                                                                                                                                                                                                                                                                                                                                                                                                                                                                                                                                                    
  1.725000E+03  1.250000E+02 -4.975000E+03  5.320897E+07  2.138867E+02  0.000000E+00  1.000000E+00  1.000000E+00  0.000000E+00  0.000000E+00  1.034424E+01  8.851403E+02  1.990304E-01  1.000000E-16  1.000000E-16  1.000000E-16  0.000000E+00  1.000000E+00                                                                                                                                                                                                                                                                                                                                                                                                                                                                                                                                                                    
  1.975000E+03  1.250000E+02 -4.975000E+03  5.321215E+07  2.138896E+02  0.000000E+00  1.000000E+00  1.000000E+00  0.000000E+00  0.000000E+00  1.034482E+01  8.851392E+02  1.990325E-01  1.000000E-16  1.000000E-16  1.000000E-16  0.000000E+00  1.000000E+00                                                                                                                                                                                                                                                                                                                                                                                                                                                                                                                                                                    
  1.250000E+02  1.250000E+02 -4.725000E+03  5.104498E+07  1.991782E+02  0.000000E+00  1.000000E+00  1.000000E+00  0.000000E+00  0.000000E+00  7.734138E+00  8.987506E+02  1.992232E-01  1.000000E-16  1.000000E-16  1.000000E-16  0.000000E+00  1.000000E+00                                                                                                                                                                                                                                                                                                                                                                                                                                                                                                                                                                    
  3.750000E+02  1.250000E+02 -4.725000E+03  5.103887E+07  1.989893E+02  0.000000E+00  1.000000E+00  1.000000E+00  0.000000E+00  0.000000E+00  7.704510E+00  8.989342E+02  1.992182E-01  1.000000E-16  1.000000E-16  1.000000E-16  0.000000E+00  1.000000E+00                                                                                                                                                                                                                                                                                                                                                                                                                                                                                                                                                                    
  6.250000E+02  1.250000E+02 -4.725000E+03  5.103062E+07  1.987625E+02  0.000000E+00  1.000000E+00  1.000000E+00  0.000000E+00  0.000000E+00  7.669074E+00  8.991539E+02  1.992116E-01  1.000000E-16  1.000000E-16  1.000000E-16  0.000000E+00  1.000000E+00                                                                                                                                                                                                                                                                                                                                                                                                                                                                                                                                                                    
  8.750000E+02  1.250000E+02 -4.725000E+03  5.102326E+07  1.984942E+02  0.000000E+00  1.000000E+00  1.000000E+00  0.000000E+00  0.000000E+00  7.627305E+00  8.994152E+02  1.992053E-01  1.000000E-16  1.000000E-16  1.000000E-16  0.000000E+00  1.000000E+00                                                                                                                                                                                                                                                                                                                                                                                                                                                                                                                                                                    
  1.050000E+03  1.250000E+02 -4.725000E+03  5.102215E+07  1.984282E+02  0.000000E+00  1.000000E+00  1.000000E+00  0.000000E+00  0.000000E+00  7.617070E+00  8.994797E+02  1.992042E-01  1.000000E-16  1.000000E-16  1.000000E-16  0.000000E+00  1.000000E+00                                                                                                                                                                                                                                                                                                                                                                                                                                                                                                                                                                    
  1.225000E+03  1.250000E+02 -4.725000E+03  5.102326E+07  1.984942E+02  0.000000E+00  1.000000E+00  1.000000E+00  0.000000E+00  0.000000E+00  7.627305E+00  8.994152E+02  1.992053E-01  1.000000E-16  1.000000E-16  1.000000E-16  0.000000E+00  1.000000E+00                                                                                                                                                                                                                                                                                                                                                                                                                                                                                                                                                                    
  1.475000E+03  1.250000E+02 -4.725000E+03  5.103062E+07  1.987625E+02  0.000000E+00  1.000000E+00  1.000000E+00  0.000000E+00  0.000000E+00  7.669074E+00  8.991539E+02  1.992116E-01  1.000000E-16  1.000000E-16  1.000000E-16  0.000000E+00  1.000000E+00                                                                                                                                                                                                                                                                                                                                                                                                                                                                                                                                                                    
  1.725000E+03  1.250000E+02 -4.725000E+03  5.103887E+07  1.989893E+02  0.000000E+00  1.000000E+00  1.000000E+00  0.000000E+00  0.000000E+00  7.704510E+00  8.989342E+02  1.992182E-01  1.000000E-16  1.000000E-16  1.000000E-16  0.000000E+00  1.000000E+00                                                                                                                                                                                                                                                                                                                                                                                                                                                                                                                                                                    