Title="TOUGHREACT V3.30-OMP flowvector.tec: Liq & Gas Fluxes (kg/s/m^2), Pore Velocities (m/s), & Heat Fluxes (J/s/m2)"                                                                                                                                                                                                                                                                                                                                                                                                                                                                                                                                                                                                                                                                                                         
Variables= "X(m)"     "Y(m)"      "Z(m)"     "FluxLiq"   "FluxLiq_X"   "FluxLiq_Y"   "FluxLiq_Z"   "PorVelLiq"  "PorVelLiqX"  "PorVelLiqY"  "PorVelLiqZ"     "FluxGas"   "FluxGas_X"   "FluxGas_Y"   "FluxGas_Z"   "PorVelGas"  "PorVelGasX"  "PorVelGasY"  "PorVelGasZ"    "HeatFlux"  "HeatFlux_X"  "HeatFlux_Y"  "HeatFlux_Z"                                                                                                                                                                                                                                                                                                                                                                                                                                                                                                
Zone T= "1.00000000E+07 sec" I=     9 J=    10 K=    23 F=Point
  1.250000E+02  1.250000E+02 -5.425000E+03  3.779523E-07 -6.313930E-14 -6.537792E-15  3.779523E-07  2.163999E-09 -3.630269E-16 -3.758981E-17  2.163999E-09  0.000000E+00  0.000000E+00  0.000000E+00  0.000000E+00  0.000000E+00  0.000000E+00  0.000000E+00  0.000000E+00  4.845801E-01 -6.446573E-08 -6.832427E-09  4.845801E-01                                                                                                                                                                                                                                                                                                                                                                                                                                                                                              
  3.750000E+02  1.250000E+02 -5.425000E+03  3.779524E-07 -1.079980E-12  6.455491E-15  3.779524E-07  2.163999E-09 -6.209474E-15  3.711661E-17  2.163999E-09  0.000000E+00  0.000000E+00  0.000000E+00  0.000000E+00  0.000000E+00  0.000000E+00  0.000000E+00  0.000000E+00  4.845802E-01 -1.099803E-06  7.017282E-09  4.845802E-01                                                                                                                                                                                                                                                                                                                                                                                                                                                                                              
  6.250000E+02  1.250000E+02 -5.425000E+03  3.779534E-07 -1.556881E-11 -1.775142E-15  3.779534E-07  2.164005E-09 -8.951470E-14 -1.020639E-17  2.164005E-09  0.000000E+00  0.000000E+00  0.000000E+00  0.000000E+00  0.000000E+00  0.000000E+00  0.000000E+00  0.000000E+00  4.845812E-01 -1.585367E-05 -2.064269E-09  4.845812E-01                                                                                                                                                                                                                                                                                                                                                                                                                                                                                              
  8.750000E+02  1.250000E+02 -5.425000E+03  3.779691E-07 -1.825152E-10 -1.142551E-14  3.779690E-07  2.164095E-09 -1.049393E-12 -6.569234E-17  2.164095E-09  0.000000E+00  0.000000E+00  0.000000E+00  0.000000E+00  0.000000E+00  0.000000E+00  0.000000E+00  0.000000E+00  4.845972E-01 -1.946367E-04 -1.209901E-08  4.845971E-01                                                                                                                                                                                                                                                                                                                                                                                                                                                                                              
  1.050000E+03  1.250000E+02 -5.425000E+03  3.781074E-07 -3.338244E-14  2.650674E-14  3.781074E-07  2.164887E-09 -1.919363E-16  1.524037E-16  2.164887E-09  0.000000E+00  0.000000E+00  0.000000E+00  0.000000E+00  0.000000E+00  0.000000E+00  0.000000E+00  0.000000E+00  4.847467E-01 -3.530797E-08  2.826657E-08  4.847467E-01                                                                                                                                                                                                                                                                                                                                                                                                                                                                                              
  1.225000E+03  1.250000E+02 -5.425000E+03  3.779691E-07  1.825135E-10 -8.265240E-15  3.779691E-07  2.164095E-09  1.049383E-12 -4.752198E-17  2.164095E-09  0.000000E+00  0.000000E+00  0.000000E+00  0.000000E+00  0.000000E+00  0.000000E+00  0.000000E+00  0.000000E+00  4.845972E-01  1.946350E-04 -8.870863E-09  4.845972E-01                                                                                                                                                                                                                                                                                                                                                                                                                                                                                              
  1.475000E+03  1.250000E+02 -5.425000E+03  3.779534E-07  1.560430E-11 -9.012923E-15  3.779534E-07  2.164005E-09  8.971876E-14 -5.182087E-17  2.164005E-09  0.000000E+00  0.000000E+00  0.000000E+00  0.000000E+00  0.000000E+00  0.000000E+00  0.000000E+00  0.000000E+00  4.845812E-01  1.589144E-05 -9.701835E-09  4.845812E-01                                                                                                                                                                                                                                                                                                                                                                                                                                                                                              
  1.725000E+03  1.250000E+02 -5.425000E+03  3.779524E-07  1.075185E-12 -2.484730E-14  3.779524E-07  2.163999E-09  6.181903E-15 -1.428625E-16  2.163999E-09  0.000000E+00  0.000000E+00  0.000000E+00  0.000000E+00  0.000000E+00  0.000000E+00  0.000000E+00  0.000000E+00  4.845801E-01  1.094695E-06 -2.615947E-08  4.845801E-01                                                                                                                                                                                                                                                                                                                                                                                                                                                                                              
  1.975000E+03  1.250000E+02 -5.425000E+03  3.779523E-07  5.455370E-14 -3.733095E-15  3.779523E-07  2.163999E-09  3.136630E-16 -2.146388E-17  2.163999E-09  0.000000E+00  0.000000E+00  0.000000E+00  0.000000E+00  0.000000E+00  0.000000E+00  0.000000E+00  0.000000E+00  4.845801E-01  5.516315E-08 -3.917966E-09  4.845801E-01                                                                                                                                                                                                                                                                                                                                                                                                                                                                                              
  1.250000E+02  1.250000E+02 -5.225000E+03  9.038417E-07 -6.297624E-15 -1.314473E-15  9.038417E-07  5.146928E-09 -3.590152E-17 -7.493550E-18  5.146928E-09  0.000000E+00  0.000000E+00  0.000000E+00  0.000000E+00  0.000000E+00  0.000000E+00  0.000000E+00  0.000000E+00  1.101166E+00 -6.238426E-09 -1.318462E-09  1.101166E+00                                                                                                                                                                                                                                                                                                                                                                                                                                                                                              
  3.750000E+02  1.250000E+02 -5.225000E+03  9.038419E-07 -1.846373E-13  1.320148E-15  9.038419E-07  5.146929E-09 -1.052581E-15  7.525906E-18  5.146929E-09  0.000000E+00  0.000000E+00  0.000000E+00  0.000000E+00  0.000000E+00  0.000000E+00  0.000000E+00  0.000000E+00  1.101166E+00 -1.814804E-07  1.309909E-09  1.101166E+00                                                                                                                                                                                                                                                                                                                                                                                                                                                                                              
  6.250000E+02  1.250000E+02 -5.225000E+03  9.038434E-07 -2.225234E-12  9.860470E-16  9.038434E-07  5.146937E-09 -1.268562E-14  5.621260E-18  5.146937E-09  0.000000E+00  0.000000E+00  0.000000E+00  0.000000E+00  0.000000E+00  0.000000E+00  0.000000E+00  0.000000E+00  1.101168E+00 -2.186871E-06  1.006208E-09  1.101168E+00                                                                                                                                                                                                                                                                                                                                                                                                                                                                                              
  8.750000E+02  1.250000E+02 -5.225000E+03  9.038613E-07 -1.430246E-11  1.714579E-15  9.038613E-07  5.147039E-09 -8.153552E-14  9.774477E-18  5.147039E-09  0.000000E+00  0.000000E+00  0.000000E+00  0.000000E+00  0.000000E+00  0.000000E+00  0.000000E+00  0.000000E+00  1.101186E+00 -1.405937E-05  1.753327E-09  1.101186E+00                                                                                                                                                                                                                                                                                                                                                                                                                                                                                              
  1.050000E+03  1.250000E+02 -5.225000E+03  9.040079E-07 -8.415564E-16 -6.187014E-16  9.040079E-07  5.147878E-09 -4.797547E-18 -3.527095E-18  5.147878E-09  0.000000E+00  0.000000E+00  0.000000E+00  0.000000E+00  0.000000E+00  0.000000E+00  0.000000E+00  0.000000E+00  1.101344E+00 -8.045908E-10 -7.114686E-10  1.101344E+00                                                                                                                                                                                                                                                                                                                                                                                                                                                                                              
  1.225000E+03  1.250000E+02 -5.225000E+03  9.038613E-07  1.430451E-11  1.672678E-16  9.038613E-07  5.147039E-09  8.154719E-14  9.535609E-19  5.147039E-09  0.000000E+00  0.000000E+00  0.000000E+00  0.000000E+00  0.000000E+00  0.000000E+00  0.000000E+00  0.000000E+00  1.101186E+00  1.406140E-05  2.050888E-10  1.101186E+00                                                                                                                                                                                                                                                                                                                                                                                                                                                                                              
  1.475000E+03  1.250000E+02 -5.225000E+03  9.038434E-07  2.228094E-12 -8.018708E-16  9.038434E-07  5.146937E-09  1.270193E-14 -4.571308E-18  5.146937E-09  0.000000E+00  0.000000E+00  0.000000E+00  0.000000E+00  0.000000E+00  0.000000E+00  0.000000E+00  0.000000E+00  1.101168E+00  2.189690E-06 -7.478605E-10  1.101168E+00                                                                                                                                                                                                                                                                                                                                                                                                                                                                                              
  1.725000E+03  1.250000E+02 -5.225000E+03  9.038419E-07  1.830072E-13 -2.276633E-15  9.038419E-07  5.146929E-09  1.043288E-15 -1.297864E-17  5.146929E-09  0.000000E+00  0.000000E+00  0.000000E+00  0.000000E+00  0.000000E+00  0.000000E+00  0.000000E+00  0.000000E+00  1.101166E+00  1.798646E-07 -2.244647E-09  1.101166E+00                                                                                                                                                                                                                                                                                                                                                                                                                                                                                              
  1.975000E+03  1.250000E+02 -5.225000E+03  9.038417E-07  4.696212E-15 -1.736541E-15  9.038417E-07  5.146927E-09  2.677218E-17 -9.899679E-18  5.146927E-09  0.000000E+00  0.000000E+00  0.000000E+00  0.000000E+00  0.000000E+00  0.000000E+00  0.000000E+00  0.000000E+00  1.101166E+00  4.638210E-09 -1.711125E-09  1.101166E+00                                                                                                                                                                                                                                                                                                                                                                                                                                                                                              
  1.250000E+02  1.250000E+02 -4.975000E+03  1.736089E-06  1.181292E-13 -9.836916E-15  1.736089E-06  9.781490E-09  6.667392E-16 -5.552104E-17  9.781490E-09  0.000000E+00  0.000000E+00  0.000000E+00  0.000000E+00  0.000000E+00  0.000000E+00  0.000000E+00  0.000000E+00  1.851936E+00  1.105433E-07 -9.472761E-09  1.851936E+00                                                                                                                                                                                                                                                                                                                                                                                                                                                                                              
  3.750000E+02  1.250000E+02 -4.975000E+03  1.736090E-06  3.607046E-13  6.701930E-15  1.736090E-06  9.781496E-09  2.035872E-15  3.782671E-17  9.781496E-09  0.000000E+00  0.000000E+00  0.000000E+00  0.000000E+00  0.000000E+00  0.000000E+00  0.000000E+00  0.000000E+00  1.851937E+00  3.383224E-07  6.505203E-09  1.851937E+00                                                                                                                                                                                                                                                                                                                                                                                                                                                                                              
  6.250000E+02  1.250000E+02 -4.975000E+03  1.736092E-06  4.229192E-13  6.780029E-15  1.736092E-06  9.781510E-09  2.387020E-15  3.826751E-17  9.781510E-09  0.000000E+00  0.000000E+00  0.000000E+00  0.000000E+00  0.000000E+00  0.000000E+00  0.000000E+00  0.000000E+00  1.851940E+00  3.968425E-07  6.404447E-09  1.851940E+00                                                                                                                                                                                                                                                                                                                                                                                                                                                                                              
  8.750000E+02  1.250000E+02 -4.975000E+03  1.736097E-06 -2.922991E-13  6.014599E-16  1.736097E-06  9.781539E-09 -1.649780E-15  3.394731E-18  9.781539E-09  0.000000E+00  0.000000E+00  0.000000E+00  0.000000E+00  0.000000E+00  0.000000E+00  0.000000E+00  0.000000E+00  1.851944E+00 -2.743517E-07  6.288671E-10  1.851944E+00                                                                                                                                                                                                                                                                                                                                                                                                                                                                                              
  1.050000E+03  1.250000E+02 -4.975000E+03  1.736107E-06  2.238819E-14 -9.325073E-15  1.736107E-06  9.781591E-09  1.263623E-16 -5.263213E-17  9.781591E-09  0.000000E+00  0.000000E+00  0.000000E+00  0.000000E+00  0.000000E+00  0.000000E+00  0.000000E+00  0.000000E+00  1.851954E+00  2.169583E-08 -8.847204E-09  1.851954E+00                                                                                                                                                                                                                                                                                                                                                                                                                                                                                              
  1.225000E+03  1.250000E+02 -4.975000E+03  1.736097E-06  3.035418E-13 -7.467417E-15  1.736097E-06  9.781539E-09  1.713236E-15 -4.214723E-17  9.781539E-09  0.000000E+00  0.000000E+00  0.000000E+00  0.000000E+00  0.000000E+00  0.000000E+00  0.000000E+00  0.000000E+00  1.851944E+00  2.851717E-07 -6.955113E-09  1.851944E+00                                                                                                                                                                                                                                                                                                                                                                                                                                                                                              
  1.475000E+03  1.250000E+02 -4.975000E+03  1.736092E-06 -4.304346E-13  1.188241E-15  1.736092E-06  9.781510E-09 -2.429438E-15  6.706614E-18  9.781510E-09  0.000000E+00  0.000000E+00  0.000000E+00  0.000000E+00  0.000000E+00  0.000000E+00  0.000000E+00  0.000000E+00  1.851940E+00 -4.041710E-07  1.227972E-09  1.851940E+00                                                                                                                                                                                                                                                                                                                                                                                                                                                                                              
  1.725000E+03  1.250000E+02 -4.975000E+03  1.736090E-06 -3.695169E-13 -5.386674E-15  1.736090E-06  9.781497E-09 -2.085609E-15 -3.040320E-17  9.781497E-09  0.000000E+00  0.000000E+00  0.000000E+00  0.000000E+00  0.000000E+00  0.000000E+00  0.000000E+00  0.000000E+00  1.851937E+00 -3.465882E-07 -5.286248E-09  1.851937E+00                                                                                                                                                                                                                                                                                                                                                                                                                                                                                              
  1.975000E+03  1.250000E+02 -4.975000E+03  1.736089E-06 -1.305716E-13 -1.003729E-14  1.736089E-06  9.781490E-09 -7.369656E-16 -5.665201E-17  9.781490E-09  0.000000E+00  0.000000E+00  0.000000E+00  0.000000E+00  0.000000E+00  0.000000E+00  0.000000E+00  0.000000E+00  1.851936E+00 -1.223566E-07 -9.555341E-09  1.851936E+00                                                                                                                                                                                                                                                                                                                                                                                                                                                                                              
  1.250000E+02  1.250000E+02 -4.725000E+03  7.215993E-06  1.049800E-12 -9.957360E-14  7.215993E-06  4.033586E-08  5.877887E-15 -5.575180E-16  4.033586E-08  0.000000E+00  0.000000E+00  0.000000E+00  0.000000E+00  0.000000E+00  0.000000E+00  0.000000E+00  0.000000E+00  6.701290E+00  9.354784E-07 -9.257151E-08  6.701290E+00                                                                                                                                                                                                                                                                                                                                                                                                                                                                                              
  3.750000E+02  1.250000E+02 -4.725000E+03  7.215997E-06  3.264435E-12  9.724507E-16  7.215997E-06  4.033588E-08  1.827775E-14  5.444804E-18  4.033588E-08  0.000000E+00  0.000000E+00  0.000000E+00  0.000000E+00  0.000000E+00  0.000000E+00  0.000000E+00  0.000000E+00  6.701293E+00  2.914632E-06  1.424753E-09  6.701293E+00                                                                                                                                                                                                                                                                                                                                                                                                                                                                                              
  6.250000E+02  1.250000E+02 -4.725000E+03  7.216004E-06  5.158240E-12 -4.772683E-15  7.216004E-06  4.033593E-08  2.888126E-14 -2.672251E-17  4.033593E-08  0.000000E+00  0.000000E+00  0.000000E+00  0.000000E+00  0.000000E+00  0.000000E+00  0.000000E+00  0.000000E+00  6.701297E+00  4.606814E-06 -5.472130E-09  6.701297E+00                                                                                                                                                                                                                                                                                                                                                                                                                                                                                              
  8.750000E+02  1.250000E+02 -4.725000E+03  7.216014E-06  3.859435E-12 -5.717829E-14  7.216014E-06  4.033602E-08  2.160919E-14 -3.201443E-16  4.033602E-08  0.000000E+00  0.000000E+00  0.000000E+00  0.000000E+00  0.000000E+00  0.000000E+00  0.000000E+00  0.000000E+00  6.701279E+00  3.413693E-06 -5.213948E-08  6.701279E+00                                                                                                                                                                                                                                                                                                                                                                                                                                                                                              
  1.050000E+03  1.250000E+02 -4.725000E+03  7.216018E-06 -3.020632E-14 -1.327836E-13  7.216018E-06  4.033619E-08 -1.691269E-16 -7.434627E-16  4.033619E-08  0.000000E+00  0.000000E+00  0.000000E+00  0.000000E+00  0.000000E+00  0.000000E+00  0.000000E+00  0.000000E+00  6.701170E+00 -2.504037E-08 -1.254372E-07  6.701170E+00                                                                                                                                                                                                                                                                                                                                                                                                                                                                                              
  1.225000E+03  1.250000E+02 -4.725000E+03  7.216014E-06 -3.905241E-12 -4.788661E-14  7.216014E-06  4.033602E-08 -2.186566E-14 -2.681197E-16  4.033602E-08  0.000000E+00  0.000000E+00  0.000000E+00  0.000000E+00  0.000000E+00  0.000000E+00  0.000000E+00  0.000000E+00  6.701279E+00 -3.455459E-06 -4.510918E-08  6.701279E+00                                                                                                                                                                                                                                                                                                                                                                                                                                                                                              
  1.475000E+03  1.250000E+02 -4.725000E+03  7.216004E-06 -5.067260E-12  6.159167E-14  7.216004E-06  4.033593E-08 -2.837186E-14  3.448551E-16  4.033593E-08  0.000000E+00  0.000000E+00  0.000000E+00  0.000000E+00  0.000000E+00  0.000000E+00  0.000000E+00  0.000000E+00  6.701297E+00 -4.525187E-06  5.703794E-08  6.701297E+00                                                                                                                                                                                                                                                                                                                                                                                                                                                                                              
  1.725000E+03  1.250000E+02 -4.725000E+03  7.215997E-06 -3.284831E-12  1.018098E-14  7.215997E-06  4.033588E-08 -1.839195E-14  5.700386E-17  4.033588E-08  0.000000E+00  0.000000E+00  0.000000E+00  0.000000E+00  0.000000E+00  0.000000E+00  0.000000E+00  0.000000E+00  6.701293E+00 -2.934506E-06  1.057451E-08  6.701293E+00                                                                                                                                                                                                                                                                                                                                                                                                                                                                                              