Title="TOUGHREACT V3.30-OMP flowvector.tec: Liq & Gas Fluxes (kg/s/m^2), Pore Velocities (m/s), & Heat Fluxes (J/s/m2)"                                                                                                                                                                                                                                                                                                                                                                                                                                                                                                                                                                                                                                                                                                         
Variables= "X(m)"     "Y(m)"      "Z(m)"     "FluxLiq"   "FluxLiq_X"   "FluxLiq_Y"   "FluxLiq_Z"   "PorVelLiq"  "PorVelLiqX"  "PorVelLiqY"  "PorVelLiqZ"     "FluxGas"   "FluxGas_X"   "FluxGas_Y"   "FluxGas_Z"   "PorVelGas"  "PorVelGasX"  "PorVelGasY"  "PorVelGasZ"    "HeatFlux"  "HeatFlux_X"  "HeatFlux_Y"  "HeatFlux_Z"                                                                                                                                                                                                                                                                                                                                                                                                                                                                                                
Zone T= "5.18400000E+05 sec" I=     9 J=    10 K=    23 F=Point
  1.250000E+02  1.250000E+02 -5.425000E+03  5.529442E-10  6.163268E-11 -1.740207E-15 -5.494986E-10  3.267787E-12  3.655820E-13 -1.032214E-17 -3.247273E-12  0.000000E+00  0.000000E+00  0.000000E+00  0.000000E+00  0.000000E+00  0.000000E+00  0.000000E+00  0.000000E+00  6.674134E-02 -1.155239E-04 -2.387508E-09  6.674124E-02                                                                                                                                                                                                                                                                                                                                                                                                                                                                                              
  3.750000E+02  1.250000E+02 -5.425000E+03  5.802807E-10  1.870738E-10 -5.005769E-16 -5.492987E-10  3.430584E-12  1.109681E-12 -2.969266E-18 -3.246154E-12  0.000000E+00  0.000000E+00  0.000000E+00  0.000000E+00  0.000000E+00  0.000000E+00  0.000000E+00  0.000000E+00  6.678939E-02 -4.538854E-04 -8.084457E-10  6.678785E-02                                                                                                                                                                                                                                                                                                                                                                                                                                                                                              
  6.250000E+02  1.250000E+02 -5.425000E+03  6.166604E-10  3.004510E-10  2.138639E-15 -5.385158E-10  3.647676E-12  1.782333E-12  1.268646E-17 -3.182582E-12  0.000000E+00  0.000000E+00  0.000000E+00  0.000000E+00  0.000000E+00  0.000000E+00  0.000000E+00  0.000000E+00  6.698558E-02 -1.254494E-03  2.739537E-09  6.697384E-02                                                                                                                                                                                                                                                                                                                                                                                                                                                                                              
  8.750000E+02  1.250000E+02 -5.425000E+03  5.464509E-10  2.834466E-10  1.070079E-15 -4.671901E-10  3.233092E-12  1.681652E-12  6.348589E-18 -2.761328E-12  0.000000E+00  0.000000E+00  0.000000E+00  0.000000E+00  0.000000E+00  0.000000E+00  0.000000E+00  0.000000E+00  6.783873E-02 -3.718407E-03  3.784742E-10  6.773675E-02                                                                                                                                                                                                                                                                                                                                                                                                                                                                                              
  1.050000E+03  1.250000E+02 -5.425000E+03  1.820219E-10  3.425163E-15  6.918559E-16 -1.820219E-10  1.075996E-12  2.032342E-17  4.105681E-18 -1.075996E-12  0.000000E+00  0.000000E+00  0.000000E+00  0.000000E+00  0.000000E+00  0.000000E+00  0.000000E+00  0.000000E+00  7.019448E-02  1.483129E-09 -4.884967E-10  7.019448E-02                                                                                                                                                                                                                                                                                                                                                                                                                                                                                              
  1.225000E+03  1.250000E+02 -5.425000E+03  5.464494E-10 -2.834380E-10  8.260800E-16 -4.671936E-10  3.233083E-12 -1.681601E-12  4.900984E-18 -2.761349E-12  0.000000E+00  0.000000E+00  0.000000E+00  0.000000E+00  0.000000E+00  0.000000E+00  0.000000E+00  0.000000E+00  6.783873E-02  3.718412E-03  5.040834E-10  6.773674E-02                                                                                                                                                                                                                                                                                                                                                                                                                                                                                              
  1.475000E+03  1.250000E+02 -5.425000E+03  6.166600E-10 -3.004454E-10 -6.018809E-16 -5.385184E-10  3.647674E-12 -1.782300E-12 -3.570373E-18 -3.182598E-12  0.000000E+00  0.000000E+00  0.000000E+00  0.000000E+00  0.000000E+00  0.000000E+00  0.000000E+00  0.000000E+00  6.698558E-02  1.254492E-03 -1.552409E-09  6.697383E-02                                                                                                                                                                                                                                                                                                                                                                                                                                                                                              
  1.725000E+03  1.250000E+02 -5.425000E+03  5.802834E-10 -1.870743E-10 -1.471305E-15 -5.493015E-10  3.430600E-12 -1.109684E-12 -8.727325E-18 -3.246170E-12  0.000000E+00  0.000000E+00  0.000000E+00  0.000000E+00  0.000000E+00  0.000000E+00  0.000000E+00  0.000000E+00  6.678939E-02  4.538802E-04 -1.777263E-09  6.678785E-02                                                                                                                                                                                                                                                                                                                                                                                                                                                                                              
  1.975000E+03  1.250000E+02 -5.425000E+03  5.529447E-10 -6.163345E-11  1.433783E-16 -5.494990E-10  3.267789E-12 -3.655866E-13  8.504570E-19 -3.247275E-12  0.000000E+00  0.000000E+00  0.000000E+00  0.000000E+00  0.000000E+00  0.000000E+00  0.000000E+00  0.000000E+00  6.674133E-02  1.155238E-04 -1.361682E-09  6.674123E-02                                                                                                                                                                                                                                                                                                                                                                                                                                                                                              
  1.250000E+02  1.250000E+02 -5.225000E+03  1.881510E-09  1.666549E-11 -1.813969E-15 -1.881436E-09  1.105718E-11  9.822184E-14 -1.069095E-17 -1.105674E-11  0.000000E+00  0.000000E+00  0.000000E+00  0.000000E+00  0.000000E+00  0.000000E+00  0.000000E+00  0.000000E+00  1.439531E-01 -1.229163E-04 -3.451463E-09  1.439531E-01                                                                                                                                                                                                                                                                                                                                                                                                                                                                                              
  3.750000E+02  1.250000E+02 -5.225000E+03  1.868128E-09  3.897152E-11 -8.691747E-16 -1.867721E-09  1.097888E-11  2.296912E-13 -5.122720E-18 -1.097648E-11  0.000000E+00  0.000000E+00  0.000000E+00  0.000000E+00  0.000000E+00  0.000000E+00  0.000000E+00  0.000000E+00  1.440732E-01 -4.225091E-04 -1.526458E-09  1.440726E-01                                                                                                                                                                                                                                                                                                                                                                                                                                                                                              
  6.250000E+02  1.250000E+02 -5.225000E+03  1.816584E-09  2.395533E-11  7.832224E-16 -1.816427E-09  1.067653E-11  1.411906E-13  4.616315E-18 -1.067559E-11  0.000000E+00  0.000000E+00  0.000000E+00  0.000000E+00  0.000000E+00  0.000000E+00  0.000000E+00  0.000000E+00  1.444598E-01 -8.302804E-04  1.216480E-09  1.444574E-01                                                                                                                                                                                                                                                                                                                                                                                                                                                                                              
  8.750000E+02  1.250000E+02 -5.225000E+03  1.654994E-09 -3.382101E-11  1.209827E-15 -1.654648E-09  9.726318E-12 -1.993577E-13  7.131182E-18 -9.724275E-12  0.000000E+00  0.000000E+00  0.000000E+00  0.000000E+00  0.000000E+00  0.000000E+00  0.000000E+00  0.000000E+00  1.456373E-01 -9.769016E-04  1.012500E-09  1.456340E-01                                                                                                                                                                                                                                                                                                                                                                                                                                                                                              
  1.050000E+03  1.250000E+02 -5.225000E+03  1.298520E-09 -1.513175E-15  9.278683E-16 -1.298520E-09  7.622989E-12 -8.919337E-18  5.469397E-18 -7.622989E-12  0.000000E+00  0.000000E+00  0.000000E+00  0.000000E+00  0.000000E+00  0.000000E+00  0.000000E+00  0.000000E+00  1.483985E-01 -5.744316E-09  1.695942E-09  1.483985E-01                                                                                                                                                                                                                                                                                                                                                                                                                                                                                              
  1.225000E+03  1.250000E+02 -5.225000E+03  1.654995E-09  3.382508E-11  3.203248E-15 -1.654649E-09  9.726327E-12  1.993817E-13  1.888116E-17 -9.724283E-12  0.000000E+00  0.000000E+00  0.000000E+00  0.000000E+00  0.000000E+00  0.000000E+00  0.000000E+00  0.000000E+00  1.456373E-01  9.769013E-04  3.806848E-09  1.456340E-01                                                                                                                                                                                                                                                                                                                                                                                                                                                                                              
  1.475000E+03  1.250000E+02 -5.225000E+03  1.816586E-09 -2.395117E-11  6.585280E-16 -1.816428E-09  1.067653E-11 -1.411661E-13  3.881366E-18 -1.067560E-11  0.000000E+00  0.000000E+00  0.000000E+00  0.000000E+00  0.000000E+00  0.000000E+00  0.000000E+00  0.000000E+00  1.444598E-01  8.302778E-04  3.437047E-10  1.444574E-01                                                                                                                                                                                                                                                                                                                                                                                                                                                                                              
  1.725000E+03  1.250000E+02 -5.225000E+03  1.868127E-09 -3.897190E-11  1.523870E-15 -1.867720E-09  1.097888E-11 -2.296935E-13  8.981348E-18 -1.097648E-11  0.000000E+00  0.000000E+00  0.000000E+00  0.000000E+00  0.000000E+00  0.000000E+00  0.000000E+00  0.000000E+00  1.440732E-01  4.225008E-04  2.053041E-09  1.440726E-01                                                                                                                                                                                                                                                                                                                                                                                                                                                                                              
  1.975000E+03  1.250000E+02 -5.225000E+03  1.881505E-09 -1.666445E-11  4.149672E-17 -1.881431E-09  1.105715E-11 -9.821572E-14  2.445683E-19 -1.105671E-11  0.000000E+00  0.000000E+00  0.000000E+00  0.000000E+00  0.000000E+00  0.000000E+00  0.000000E+00  0.000000E+00  1.439531E-01  1.229160E-04 -9.726824E-10  1.439531E-01                                                                                                                                                                                                                                                                                                                                                                                                                                                                                              
  1.250000E+02  1.250000E+02 -4.975000E+03  3.203550E-09 -6.853953E-12 -1.458532E-15 -3.203542E-09  1.868020E-11 -4.002811E-14 -8.518006E-18 -1.868016E-11  0.000000E+00  0.000000E+00  0.000000E+00  0.000000E+00  0.000000E+00  0.000000E+00  0.000000E+00  0.000000E+00  1.625640E-01 -8.470652E-05 -7.136568E-10  1.625640E-01                                                                                                                                                                                                                                                                                                                                                                                                                                                                                              
  3.750000E+02  1.250000E+02 -4.975000E+03  3.169840E-09 -2.561549E-11 -1.292963E-15 -3.169736E-09  1.848384E-11 -1.495998E-13 -7.551135E-18 -1.848323E-11  0.000000E+00  0.000000E+00  0.000000E+00  0.000000E+00  0.000000E+00  0.000000E+00  0.000000E+00  0.000000E+00  1.626963E-01 -2.614440E-04  2.686672E-10  1.626960E-01                                                                                                                                                                                                                                                                                                                                                                                                                                                                                              
  6.250000E+02  1.250000E+02 -4.975000E+03  3.085269E-09 -5.069299E-11  9.877570E-16 -3.084852E-09  1.799077E-11 -2.960626E-13  5.768783E-18 -1.798833E-11  0.000000E+00  0.000000E+00  0.000000E+00  0.000000E+00  0.000000E+00  0.000000E+00  0.000000E+00  0.000000E+00  1.630250E-01 -4.081768E-04  2.074897E-09  1.630245E-01                                                                                                                                                                                                                                                                                                                                                                                                                                                                                              
  8.750000E+02  1.250000E+02 -4.975000E+03  2.932949E-09 -4.633918E-11  7.922074E-16 -2.932583E-09  1.710152E-11 -2.706384E-13  4.626826E-18 -1.709938E-11  0.000000E+00  0.000000E+00  0.000000E+00  0.000000E+00  0.000000E+00  0.000000E+00  0.000000E+00  0.000000E+00  1.636211E-01 -3.122045E-04  1.612953E-09  1.636208E-01                                                                                                                                                                                                                                                                                                                                                                                                                                                                                              
  1.050000E+03  1.250000E+02 -4.975000E+03  2.844928E-09  4.288799E-16 -7.528266E-17 -2.844928E-09  1.658649E-11  2.504857E-18 -4.396850E-19 -1.658649E-11  0.000000E+00  0.000000E+00  0.000000E+00  0.000000E+00  0.000000E+00  0.000000E+00  0.000000E+00  0.000000E+00  1.639780E-01 -2.487935E-09 -2.362061E-10  1.639780E-01                                                                                                                                                                                                                                                                                                                                                                                                                                                                                              
  1.225000E+03  1.250000E+02 -4.975000E+03  2.932947E-09  4.634413E-11  7.339706E-16 -2.932580E-09  1.710151E-11  2.706673E-13  4.286699E-18 -1.709936E-11  0.000000E+00  0.000000E+00  0.000000E+00  0.000000E+00  0.000000E+00  0.000000E+00  0.000000E+00  0.000000E+00  1.636211E-01  3.122044E-04  4.220580E-10  1.636208E-01                                                                                                                                                                                                                                                                                                                                                                                                                                                                                              
  1.475000E+03  1.250000E+02 -4.975000E+03  3.085268E-09  5.069557E-11  2.319311E-16 -3.084852E-09  1.799076E-11  2.960777E-13  1.354544E-18 -1.798833E-11  0.000000E+00  0.000000E+00  0.000000E+00  0.000000E+00  0.000000E+00  0.000000E+00  0.000000E+00  0.000000E+00  1.630250E-01  4.081702E-04 -1.347956E-09  1.630245E-01                                                                                                                                                                                                                                                                                                                                                                                                                                                                                              
  1.725000E+03  1.250000E+02 -4.975000E+03  3.169833E-09  2.561675E-11  1.155727E-15 -3.169730E-09  1.848380E-11  1.496071E-13  6.749650E-18 -1.848320E-11  0.000000E+00  0.000000E+00  0.000000E+00  0.000000E+00  0.000000E+00  0.000000E+00  0.000000E+00  0.000000E+00  1.626963E-01  2.614357E-04  8.892204E-10  1.626960E-01                                                                                                                                                                                                                                                                                                                                                                                                                                                                                              
  1.975000E+03  1.250000E+02 -4.975000E+03  3.203542E-09  6.857146E-12 -2.743292E-15 -3.203535E-09  1.868016E-11  4.004676E-14 -1.602117E-17 -1.868012E-11  0.000000E+00  0.000000E+00  0.000000E+00  0.000000E+00  0.000000E+00  0.000000E+00  0.000000E+00  0.000000E+00  1.625640E-01  8.470731E-05 -2.044123E-09  1.625640E-01                                                                                                                                                                                                                                                                                                                                                                                                                                                                                              
  1.250000E+02  1.250000E+02 -4.725000E+03  4.049998E-09 -4.855870E-12  2.039108E-16 -4.049995E-09  2.341931E-11 -2.808217E-14  1.179242E-18 -2.341930E-11  0.000000E+00  0.000000E+00  0.000000E+00  0.000000E+00  0.000000E+00  0.000000E+00  0.000000E+00  0.000000E+00  1.761734E-01 -4.142226E-05  1.208483E-09  1.761734E-01                                                                                                                                                                                                                                                                                                                                                                                                                                                                                              
  3.750000E+02  1.250000E+02 -4.725000E+03  4.007643E-09 -1.527049E-11  1.792997E-16 -4.007614E-09  2.317447E-11 -8.831171E-14  1.036917E-18 -2.317430E-11  0.000000E+00  0.000000E+00  0.000000E+00  0.000000E+00  0.000000E+00  0.000000E+00  0.000000E+00  0.000000E+00  1.762734E-01 -1.195786E-04  7.284390E-10  1.762733E-01                                                                                                                                                                                                                                                                                                                                                                                                                                                                                              
  6.250000E+02  1.250000E+02 -4.725000E+03  3.919876E-09 -2.380451E-11 -4.745645E-16 -3.919804E-09  2.266698E-11 -1.376662E-13 -2.744499E-18 -2.266656E-11  0.000000E+00  0.000000E+00  0.000000E+00  0.000000E+00  0.000000E+00  0.000000E+00  0.000000E+00  0.000000E+00  1.764828E-01 -1.639139E-04 -2.898589E-11  1.764827E-01                                                                                                                                                                                                                                                                                                                                                                                                                                                                                              
  8.750000E+02  1.250000E+02 -4.725000E+03  3.807647E-09 -1.699787E-11 -2.071914E-16 -3.807609E-09  2.201777E-11 -9.830248E-14 -1.198239E-18 -2.201755E-11  0.000000E+00  0.000000E+00  0.000000E+00  0.000000E+00  0.000000E+00  0.000000E+00  0.000000E+00  0.000000E+00  1.767577E-01 -1.054618E-04  1.116809E-10  1.767577E-01                                                                                                                                                                                                                                                                                                                                                                                                                                                                                              
  1.050000E+03  1.250000E+02 -4.725000E+03  3.782316E-09 -1.525247E-18  1.124207E-16 -3.782316E-09  2.187109E-11 -8.818418E-21  6.501572E-19 -2.187109E-11  0.000000E+00  0.000000E+00  0.000000E+00  0.000000E+00  0.000000E+00  0.000000E+00  0.000000E+00  0.000000E+00  1.768240E-01 -2.920389E-09 -1.343622E-10  1.768240E-01                                                                                                                                                                                                                                                                                                                                                                                                                                                                                              
  1.225000E+03  1.250000E+02 -4.725000E+03  3.807646E-09  1.699993E-11  1.142385E-15 -3.807608E-09  2.201776E-11  9.831442E-14  6.606692E-18 -2.201754E-11  0.000000E+00  0.000000E+00  0.000000E+00  0.000000E+00  0.000000E+00  0.000000E+00  0.000000E+00  0.000000E+00  1.767577E-01  1.054563E-04  1.928684E-10  1.767577E-01                                                                                                                                                                                                                                                                                                                                                                                                                                                                                              
  1.475000E+03  1.250000E+02 -4.725000E+03  3.919878E-09  2.380675E-11 -1.755028E-16 -3.919806E-09  2.266700E-11  1.376792E-13 -1.014967E-18 -2.266658E-11  0.000000E+00  0.000000E+00  0.000000E+00  0.000000E+00  0.000000E+00  0.000000E+00  0.000000E+00  0.000000E+00  1.764828E-01  1.639055E-04 -1.110823E-09  1.764827E-01                                                                                                                                                                                                                                                                                                                                                                                                                                                                                              
  1.725000E+03  1.250000E+02 -4.725000E+03  4.007639E-09  1.527093E-11 -4.131728E-16 -4.007610E-09  2.317445E-11  8.831429E-14 -2.389441E-18 -2.317428E-11  0.000000E+00  0.000000E+00  0.000000E+00  0.000000E+00  0.000000E+00  0.000000E+00  0.000000E+00  0.000000E+00  1.762734E-01  1.195696E-04 -2.205853E-10  1.762733E-01                                                                                                                                                                                                                                                                                                                                                                                                                                                                                              