Title="TOUGHREACT V3.30-OMP flowvector.tec: Liq & Gas Fluxes (kg/s/m^2), Pore Velocities (m/s), & Heat Fluxes (J/s/m2)"                                                                                                                                                                                                                                                                                                                                                                                                                                                                                                                                                                                                                                                                                                         
Variables= "X(m)"     "Y(m)"      "Z(m)"     "FluxLiq"   "FluxLiq_X"   "FluxLiq_Y"   "FluxLiq_Z"   "PorVelLiq"  "PorVelLiqX"  "PorVelLiqY"  "PorVelLiqZ"     "FluxGas"   "FluxGas_X"   "FluxGas_Y"   "FluxGas_Z"   "PorVelGas"  "PorVelGasX"  "PorVelGasY"  "PorVelGasZ"    "HeatFlux"  "HeatFlux_X"  "HeatFlux_Y"  "HeatFlux_Z"                                                                                                                                                                                                                                                                                                                                                                                                                                                                                                
Zone T= "5.18400000E+05 sec" I=     9 J=    10 K=    23 F=Point
  1.250000E+02  1.250000E+02 -5.425000E+03  4.946802E-07 -2.226273E-16 -1.565276E-16  4.946802E-07  2.831789E-09 -1.279747E-18 -8.997807E-19  2.831789E-09  0.000000E+00  0.000000E+00  0.000000E+00  0.000000E+00  0.000000E+00  0.000000E+00  0.000000E+00  0.000000E+00  6.034984E-01 -2.366556E-10 -1.631260E-10  6.034984E-01                                                                                                                                                                                                                                                                                                                                                                                                                                                                                              
  3.750000E+02  1.250000E+02 -5.425000E+03  4.946802E-07 -2.096238E-15 -1.411174E-16  4.946802E-07  2.831789E-09 -1.204998E-17 -8.111970E-19  2.831789E-09  0.000000E+00  0.000000E+00  0.000000E+00  0.000000E+00  0.000000E+00  0.000000E+00  0.000000E+00  0.000000E+00  6.034984E-01 -2.167139E-09 -1.425296E-10  6.034984E-01                                                                                                                                                                                                                                                                                                                                                                                                                                                                                              
  6.250000E+02  1.250000E+02 -5.425000E+03  4.946802E-07 -9.266015E-14  1.531507E-15  4.946802E-07  2.831789E-09 -5.326460E-16  8.803687E-18  2.831789E-09  0.000000E+00  0.000000E+00  0.000000E+00  0.000000E+00  0.000000E+00  0.000000E+00  0.000000E+00  0.000000E+00  6.034984E-01 -9.434750E-08  1.596511E-09  6.034984E-01                                                                                                                                                                                                                                                                                                                                                                                                                                                                                              
  8.750000E+02  1.250000E+02 -5.425000E+03  4.946803E-07 -1.835901E-11  4.579069E-16  4.946803E-07  2.831790E-09 -1.055346E-13  2.632224E-18  2.831790E-09  0.000000E+00  0.000000E+00  0.000000E+00  0.000000E+00  0.000000E+00  0.000000E+00  0.000000E+00  0.000000E+00  6.034985E-01 -1.915154E-05  4.864531E-10  6.034985E-01                                                                                                                                                                                                                                                                                                                                                                                                                                                                                              
  1.050000E+03  1.250000E+02 -5.425000E+03  4.946964E-07 -9.372505E-16  5.637048E-16  4.946964E-07  2.831882E-09 -5.387675E-18  3.240391E-18  2.831882E-09  0.000000E+00  0.000000E+00  0.000000E+00  0.000000E+00  0.000000E+00  0.000000E+00  0.000000E+00  0.000000E+00  6.035153E-01 -9.773115E-10  5.854332E-10  6.035153E-01                                                                                                                                                                                                                                                                                                                                                                                                                                                                                              
  1.225000E+03  1.250000E+02 -5.425000E+03  4.946803E-07  1.836193E-11  1.357606E-15  4.946803E-07  2.831790E-09  1.055514E-13  7.804040E-18  2.831790E-09  0.000000E+00  0.000000E+00  0.000000E+00  0.000000E+00  0.000000E+00  0.000000E+00  0.000000E+00  0.000000E+00  6.034985E-01  1.915458E-05  1.419828E-09  6.034985E-01                                                                                                                                                                                                                                                                                                                                                                                                                                                                                              
  1.475000E+03  1.250000E+02 -5.425000E+03  4.946802E-07  9.336021E-14 -1.656207E-15  4.946802E-07  2.831789E-09  5.366703E-16 -9.520514E-18  2.831789E-09  0.000000E+00  0.000000E+00  0.000000E+00  0.000000E+00  0.000000E+00  0.000000E+00  0.000000E+00  0.000000E+00  6.034984E-01  9.507719E-08 -1.721572E-09  6.034984E-01                                                                                                                                                                                                                                                                                                                                                                                                                                                                                              
  1.725000E+03  1.250000E+02 -5.425000E+03  4.946802E-07 -9.084762E-16  2.387522E-17  4.946802E-07  2.831789E-09 -5.222269E-18  1.372439E-19  2.831789E-09  0.000000E+00  0.000000E+00  0.000000E+00  0.000000E+00  0.000000E+00  0.000000E+00  0.000000E+00  0.000000E+00  6.034984E-01 -9.622353E-10  2.510458E-11  6.034984E-01                                                                                                                                                                                                                                                                                                                                                                                                                                                                                              
  1.975000E+03  1.250000E+02 -5.425000E+03  4.946802E-07  3.709013E-16 -1.063615E-15  4.946802E-07  2.831789E-09  2.132083E-18 -6.114065E-18  2.831789E-09  0.000000E+00  0.000000E+00  0.000000E+00  0.000000E+00  0.000000E+00  0.000000E+00  0.000000E+00  0.000000E+00  6.034984E-01  3.892237E-10 -1.106520E-09  6.034984E-01                                                                                                                                                                                                                                                                                                                                                                                                                                                                                              
  1.250000E+02  1.250000E+02 -5.225000E+03  9.628906E-07 -4.409170E-17 -2.620431E-16  9.628906E-07  5.487476E-09 -2.513543E-19 -1.493833E-18  5.487476E-09  0.000000E+00  0.000000E+00  0.000000E+00  0.000000E+00  0.000000E+00  0.000000E+00  0.000000E+00  0.000000E+00  1.163408E+00 -4.513983E-11 -2.642358E-10  1.163408E+00                                                                                                                                                                                                                                                                                                                                                                                                                                                                                              
  3.750000E+02  1.250000E+02 -5.225000E+03  9.628906E-07 -1.017949E-16 -1.320580E-16  9.628906E-07  5.487476E-09 -5.803037E-19 -7.528249E-19  5.487476E-09  0.000000E+00  0.000000E+00  0.000000E+00  0.000000E+00  0.000000E+00  0.000000E+00  0.000000E+00  0.000000E+00  1.163408E+00 -1.041643E-10 -1.328864E-10  1.163408E+00                                                                                                                                                                                                                                                                                                                                                                                                                                                                                              
  6.250000E+02  1.250000E+02 -5.225000E+03  9.628906E-07 -8.350576E-16  3.997569E-18  9.628906E-07  5.487476E-09 -4.760426E-18  2.278900E-20  5.487476E-09  0.000000E+00  0.000000E+00  0.000000E+00  0.000000E+00  0.000000E+00  0.000000E+00  0.000000E+00  0.000000E+00  1.163408E+00 -8.221695E-10  3.642198E-12  1.163408E+00                                                                                                                                                                                                                                                                                                                                                                                                                                                                                              
  8.750000E+02  1.250000E+02 -5.225000E+03  9.628907E-07 -1.129834E-13  1.212201E-16  9.628907E-07  5.487477E-09 -6.440860E-16  6.910414E-19  5.487477E-09  0.000000E+00  0.000000E+00  0.000000E+00  0.000000E+00  0.000000E+00  0.000000E+00  0.000000E+00  0.000000E+00  1.163408E+00 -1.110502E-07  1.221327E-10  1.163408E+00                                                                                                                                                                                                                                                                                                                                                                                                                                                                                              
  1.050000E+03  1.250000E+02 -5.225000E+03  9.629069E-07  3.076789E-17  4.046922E-18  9.629069E-07  5.487569E-09  1.753990E-19  2.307035E-20  5.487569E-09  0.000000E+00  0.000000E+00  0.000000E+00  0.000000E+00  0.000000E+00  0.000000E+00  0.000000E+00  0.000000E+00  1.163425E+00  3.100605E-11  3.976314E-12  1.163425E+00                                                                                                                                                                                                                                                                                                                                                                                                                                                                                              
  1.225000E+03  1.250000E+02 -5.225000E+03  9.628907E-07  1.129898E-13 -1.254546E-17  9.628907E-07  5.487477E-09  6.441229E-16 -7.151808E-20  5.487477E-09  0.000000E+00  0.000000E+00  0.000000E+00  0.000000E+00  0.000000E+00  0.000000E+00  0.000000E+00  0.000000E+00  1.163408E+00  1.110564E-07 -1.277979E-11  1.163408E+00                                                                                                                                                                                                                                                                                                                                                                                                                                                                                              
  1.475000E+03  1.250000E+02 -5.225000E+03  9.628906E-07  7.770386E-16  9.034506E-17  9.628906E-07  5.487476E-09  4.429676E-18  5.150315E-19  5.487476E-09  0.000000E+00  0.000000E+00  0.000000E+00  0.000000E+00  0.000000E+00  0.000000E+00  0.000000E+00  0.000000E+00  1.163408E+00  7.637275E-10  9.103647E-11  1.163408E+00                                                                                                                                                                                                                                                                                                                                                                                                                                                                                              
  1.725000E+03  1.250000E+02 -5.225000E+03  9.628906E-07 -1.413067E-16  2.992748E-17  9.628906E-07  5.487476E-09 -8.055491E-19  1.706080E-19  5.487476E-09  0.000000E+00  0.000000E+00  0.000000E+00  0.000000E+00  0.000000E+00  0.000000E+00  0.000000E+00  0.000000E+00  1.163408E+00 -1.407263E-10  3.031011E-11  1.163408E+00                                                                                                                                                                                                                                                                                                                                                                                                                                                                                              
  1.975000E+03  1.250000E+02 -5.225000E+03  9.628906E-07 -1.652822E-16  1.501211E-16  9.628906E-07  5.487476E-09 -9.422268E-19  8.557974E-19  5.487476E-09  0.000000E+00  0.000000E+00  0.000000E+00  0.000000E+00  0.000000E+00  0.000000E+00  0.000000E+00  0.000000E+00  1.163408E+00 -1.660409E-10  1.515822E-10  1.163408E+00                                                                                                                                                                                                                                                                                                                                                                                                                                                                                              
  1.250000E+02  1.250000E+02 -4.975000E+03  9.473668E-07  5.516215E-15 -2.198778E-17  9.473668E-07  5.346710E-09  3.113110E-17 -1.240894E-19  5.346710E-09  0.000000E+00  0.000000E+00  0.000000E+00  0.000000E+00  0.000000E+00  0.000000E+00  0.000000E+00  0.000000E+00  1.109344E+00  5.176586E-09 -2.059105E-11  1.109344E+00                                                                                                                                                                                                                                                                                                                                                                                                                                                                                              
  3.750000E+02  1.250000E+02 -4.975000E+03  9.473676E-07  1.653204E-14  1.412059E-18  9.473676E-07  5.346715E-09  9.329961E-17  7.969044E-21  5.346715E-09  0.000000E+00  0.000000E+00  0.000000E+00  0.000000E+00  0.000000E+00  0.000000E+00  0.000000E+00  0.000000E+00  1.109345E+00  1.551257E-08  5.132499E-13  1.109345E+00                                                                                                                                                                                                                                                                                                                                                                                                                                                                                              
  6.250000E+02  1.250000E+02 -4.975000E+03  9.473692E-07  2.746757E-14 -9.950696E-17  9.473692E-07  5.346724E-09  1.550149E-16 -5.615736E-19  5.346724E-09  0.000000E+00  0.000000E+00  0.000000E+00  0.000000E+00  0.000000E+00  0.000000E+00  0.000000E+00  0.000000E+00  1.109346E+00  2.577107E-08 -9.623645E-11  1.109346E+00                                                                                                                                                                                                                                                                                                                                                                                                                                                                                              
  8.750000E+02  1.250000E+02 -4.975000E+03  9.473715E-07  3.657298E-14  1.007557E-16  9.473715E-07  5.346737E-09  2.064019E-16  5.686211E-19  5.346737E-09  0.000000E+00  0.000000E+00  0.000000E+00  0.000000E+00  0.000000E+00  0.000000E+00  0.000000E+00  0.000000E+00  1.109349E+00  3.431448E-08  9.768480E-11  1.109349E+00                                                                                                                                                                                                                                                                                                                                                                                                                                                                                              
  1.050000E+03  1.250000E+02 -4.975000E+03  9.473737E-07  1.005046E-16  1.349621E-17  9.473737E-07  5.346749E-09  5.672039E-19  7.616671E-20  5.346749E-09  0.000000E+00  0.000000E+00  0.000000E+00  0.000000E+00  0.000000E+00  0.000000E+00  0.000000E+00  0.000000E+00  1.109351E+00  9.784851E-11  1.323113E-11  1.109351E+00                                                                                                                                                                                                                                                                                                                                                                                                                                                                                              
  1.225000E+03  1.250000E+02 -4.975000E+03  9.473715E-07 -3.652260E-14  4.532999E-17  9.473715E-07  5.346737E-09 -2.061175E-16  2.558226E-19  5.346737E-09  0.000000E+00  0.000000E+00  0.000000E+00  0.000000E+00  0.000000E+00  0.000000E+00  0.000000E+00  0.000000E+00  1.109349E+00 -3.426463E-08  4.281711E-11  1.109349E+00                                                                                                                                                                                                                                                                                                                                                                                                                                                                                              
  1.475000E+03  1.250000E+02 -4.975000E+03  9.473692E-07 -2.765870E-14 -8.345559E-17  9.473692E-07  5.346724E-09 -1.560936E-16 -4.709867E-19  5.346724E-09  0.000000E+00  0.000000E+00  0.000000E+00  0.000000E+00  0.000000E+00  0.000000E+00  0.000000E+00  0.000000E+00  1.109346E+00 -2.595604E-08 -8.148615E-11  1.109346E+00                                                                                                                                                                                                                                                                                                                                                                                                                                                                                              
  1.725000E+03  1.250000E+02 -4.975000E+03  9.473676E-07 -1.677060E-14  1.020909E-16  9.473676E-07  5.346715E-09 -9.464589E-17  5.761564E-19  5.346715E-09  0.000000E+00  0.000000E+00  0.000000E+00  0.000000E+00  0.000000E+00  0.000000E+00  0.000000E+00  0.000000E+00  1.109345E+00 -1.574336E-08  9.786023E-11  1.109345E+00                                                                                                                                                                                                                                                                                                                                                                                                                                                                                              
  1.975000E+03  1.250000E+02 -4.975000E+03  9.473668E-07 -5.613762E-15  9.738406E-17  9.473668E-07  5.346710E-09 -3.168161E-17  5.495930E-19  5.346710E-09  0.000000E+00  0.000000E+00  0.000000E+00  0.000000E+00  0.000000E+00  0.000000E+00  0.000000E+00  0.000000E+00  1.109344E+00 -5.270392E-09  9.413591E-11  1.109344E+00                                                                                                                                                                                                                                                                                                                                                                                                                                                                                              
  1.250000E+02  1.250000E+02 -4.725000E+03  7.961216E-06  7.490298E-13 -4.293664E-15  7.961216E-06  4.440832E-08  4.186723E-15 -2.399955E-17  4.440832E-08  0.000000E+00  0.000000E+00  0.000000E+00  0.000000E+00  0.000000E+00  0.000000E+00  0.000000E+00  0.000000E+00  7.337931E+00  6.696531E-07 -3.966217E-09  7.337931E+00                                                                                                                                                                                                                                                                                                                                                                                                                                                                                              
  3.750000E+02  1.250000E+02 -4.725000E+03  7.961226E-06  2.252323E-12  6.952798E-15  7.961226E-06  4.440838E-08  1.258942E-14  3.886285E-17  4.440838E-08  0.000000E+00  0.000000E+00  0.000000E+00  0.000000E+00  0.000000E+00  0.000000E+00  0.000000E+00  0.000000E+00  7.337940E+00  2.013797E-06  6.440479E-09  7.337940E+00                                                                                                                                                                                                                                                                                                                                                                                                                                                                                              
  6.250000E+02  1.250000E+02 -4.725000E+03  7.961246E-06  3.758903E-12  2.994407E-15  7.961246E-06  4.440849E-08  2.101049E-14  1.673732E-17  4.440849E-08  0.000000E+00  0.000000E+00  0.000000E+00  0.000000E+00  0.000000E+00  0.000000E+00  0.000000E+00  0.000000E+00  7.337958E+00  3.360974E-06  2.701445E-09  7.337958E+00                                                                                                                                                                                                                                                                                                                                                                                                                                                                                              
  8.750000E+02  1.250000E+02 -4.725000E+03  7.961275E-06  5.096159E-12 -6.305620E-15  7.961275E-06  4.440865E-08  2.848512E-14 -3.524544E-17  4.440865E-08  0.000000E+00  0.000000E+00  0.000000E+00  0.000000E+00  0.000000E+00  0.000000E+00  0.000000E+00  0.000000E+00  7.337984E+00  4.556382E-06 -5.825066E-09  7.337984E+00                                                                                                                                                                                                                                                                                                                                                                                                                                                                                              
  1.050000E+03  1.250000E+02 -4.725000E+03  7.961302E-06 -1.011035E-14 -6.314025E-16  7.961302E-06  4.440882E-08 -5.651209E-17 -3.529242E-18  4.440882E-08  0.000000E+00  0.000000E+00  0.000000E+00  0.000000E+00  0.000000E+00  0.000000E+00  0.000000E+00  0.000000E+00  7.337999E+00 -9.340246E-09 -6.582823E-10  7.337999E+00                                                                                                                                                                                                                                                                                                                                                                                                                                                                                              
  1.225000E+03  1.250000E+02 -4.725000E+03  7.961275E-06 -5.108362E-12  7.618191E-15  7.961275E-06  4.440865E-08 -2.855333E-14  4.258209E-17  4.440865E-08  0.000000E+00  0.000000E+00  0.000000E+00  0.000000E+00  0.000000E+00  0.000000E+00  0.000000E+00  0.000000E+00  7.337984E+00 -4.567612E-06  7.055687E-09  7.337984E+00                                                                                                                                                                                                                                                                                                                                                                                                                                                                                              
  1.475000E+03  1.250000E+02 -4.725000E+03  7.961246E-06 -3.752829E-12  9.161248E-15  7.961246E-06  4.440849E-08 -2.097654E-14  5.120705E-17  4.440849E-08  0.000000E+00  0.000000E+00  0.000000E+00  0.000000E+00  0.000000E+00  0.000000E+00  0.000000E+00  0.000000E+00  7.337958E+00 -3.355429E-06  8.383328E-09  7.337958E+00                                                                                                                                                                                                                                                                                                                                                                                                                                                                                              
  1.725000E+03  1.250000E+02 -4.725000E+03  7.961226E-06 -2.247999E-12  6.738926E-15  7.961226E-06  4.440838E-08 -1.256525E-14  3.766741E-17  4.440838E-08  0.000000E+00  0.000000E+00  0.000000E+00  0.000000E+00  0.000000E+00  0.000000E+00  0.000000E+00  0.000000E+00  7.337940E+00 -2.009849E-06  6.260943E-09  7.337940E+00                                                                                                                                                                                                                                                                                                                                                                                                                                                                                              