Title="TOUGHREACT V3.30-OMP flowvector.tec: Liq & Gas Fluxes (kg/s/m^2), Pore Velocities (m/s), & Heat Fluxes (J/s/m2)"                                                                                                                                                                                                                                                                                                                                                                                                                                                                                                                                                                                                                                                                                                         
Variables= "X(m)"     "Y(m)"      "Z(m)"     "FluxLiq"   "FluxLiq_X"   "FluxLiq_Y"   "FluxLiq_Z"   "PorVelLiq"  "PorVelLiqX"  "PorVelLiqY"  "PorVelLiqZ"     "FluxGas"   "FluxGas_X"   "FluxGas_Y"   "FluxGas_Z"   "PorVelGas"  "PorVelGasX"  "PorVelGasY"  "PorVelGasZ"    "HeatFlux"  "HeatFlux_X"  "HeatFlux_Y"  "HeatFlux_Z"                                                                                                                                                                                                                                                                                                                                                                                                                                                                                                
Zone T= "1.00000000E+07 sec" I=     9 J=    10 K=    23 F=Point
  1.250000E+02  1.250000E+02 -5.425000E+03  5.529618E-10  6.163579E-11 -2.089555E-15 -5.495160E-10  3.267889E-12  3.656003E-13 -1.239432E-17 -3.247374E-12  0.000000E+00  0.000000E+00  0.000000E+00  0.000000E+00  0.000000E+00  0.000000E+00  0.000000E+00  0.000000E+00  6.674100E-02 -1.155303E-04 -2.768569E-09  6.674090E-02                                                                                                                                                                                                                                                                                                                                                                                                                                                                                              
  3.750000E+02  1.250000E+02 -5.425000E+03  5.802979E-10  1.870834E-10 -5.795486E-16 -5.493136E-10  3.430684E-12  1.109738E-12 -3.437701E-18 -3.246240E-12  0.000000E+00  0.000000E+00  0.000000E+00  0.000000E+00  0.000000E+00  0.000000E+00  0.000000E+00  0.000000E+00  6.678906E-02 -4.538999E-04 -8.971267E-10  6.678751E-02                                                                                                                                                                                                                                                                                                                                                                                                                                                                                              
  6.250000E+02  1.250000E+02 -5.425000E+03  6.166766E-10  3.004599E-10  1.734513E-15 -5.385293E-10  3.647771E-12  1.782386E-12  1.028917E-17 -3.182661E-12  0.000000E+00  0.000000E+00  0.000000E+00  0.000000E+00  0.000000E+00  0.000000E+00  0.000000E+00  0.000000E+00  6.698525E-02 -1.254511E-03  2.359153E-09  6.697350E-02                                                                                                                                                                                                                                                                                                                                                                                                                                                                                              
  8.750000E+02  1.250000E+02 -5.425000E+03  5.464628E-10  2.834495E-10  2.005803E-15 -4.672022E-10  3.233161E-12  1.681669E-12  1.190006E-17 -2.761399E-12  0.000000E+00  0.000000E+00  0.000000E+00  0.000000E+00  0.000000E+00  0.000000E+00  0.000000E+00  0.000000E+00  6.783840E-02 -3.718418E-03  1.338236E-09  6.773641E-02                                                                                                                                                                                                                                                                                                                                                                                                                                                                                              
  1.050000E+03  1.250000E+02 -5.425000E+03  1.820339E-10  4.474376E-16  3.059158E-15 -1.820339E-10  1.076067E-12  2.654851E-18  1.815396E-17 -1.076067E-12  0.000000E+00  0.000000E+00  0.000000E+00  0.000000E+00  0.000000E+00  0.000000E+00  0.000000E+00  0.000000E+00  7.019415E-02 -1.524679E-09  1.914200E-09  7.019415E-02                                                                                                                                                                                                                                                                                                                                                                                                                                                                                              
  1.225000E+03  1.250000E+02 -5.425000E+03  5.464591E-10 -2.834446E-10  3.075213E-15 -4.672010E-10  3.233140E-12 -1.681639E-12  1.824468E-17 -2.761391E-12  0.000000E+00  0.000000E+00  0.000000E+00  0.000000E+00  0.000000E+00  0.000000E+00  0.000000E+00  0.000000E+00  6.783840E-02  3.718419E-03  2.793990E-09  6.773641E-02                                                                                                                                                                                                                                                                                                                                                                                                                                                                                              
  1.475000E+03  1.250000E+02 -5.425000E+03  6.166737E-10 -3.004530E-10  1.955462E-15 -5.385299E-10  3.647754E-12 -1.782344E-12  1.159985E-17 -3.182665E-12  0.000000E+00  0.000000E+00  0.000000E+00  0.000000E+00  0.000000E+00  0.000000E+00  0.000000E+00  0.000000E+00  6.698525E-02  1.254511E-03  1.025609E-09  6.697350E-02                                                                                                                                                                                                                                                                                                                                                                                                                                                                                              
  1.725000E+03  1.250000E+02 -5.425000E+03  5.802976E-10 -1.870816E-10 -7.190422E-16 -5.493139E-10  3.430682E-12 -1.109727E-12 -4.265133E-18 -3.246242E-12  0.000000E+00  0.000000E+00  0.000000E+00  0.000000E+00  0.000000E+00  0.000000E+00  0.000000E+00  0.000000E+00  6.678905E-02  4.538969E-04 -1.043932E-09  6.678751E-02                                                                                                                                                                                                                                                                                                                                                                                                                                                                                              
  1.975000E+03  1.250000E+02 -5.425000E+03  5.529591E-10 -6.163638E-11 -4.429466E-16 -5.495132E-10  3.267873E-12 -3.656038E-13 -2.627363E-18 -3.247357E-12  0.000000E+00  0.000000E+00  0.000000E+00  0.000000E+00  0.000000E+00  0.000000E+00  0.000000E+00  0.000000E+00  6.674099E-02  1.155303E-04 -1.954348E-09  6.674089E-02                                                                                                                                                                                                                                                                                                                                                                                                                                                                                              
  1.250000E+02  1.250000E+02 -5.225000E+03  1.881575E-09  1.666810E-11  7.137193E-17 -1.881501E-09  1.105755E-11  9.823722E-14  4.206430E-19 -1.105712E-11  0.000000E+00  0.000000E+00  0.000000E+00  0.000000E+00  0.000000E+00  0.000000E+00  0.000000E+00  0.000000E+00  1.439520E-01 -1.229224E-04 -1.592787E-09  1.439520E-01                                                                                                                                                                                                                                                                                                                                                                                                                                                                                              
  3.750000E+02  1.250000E+02 -5.225000E+03  1.868189E-09  3.897797E-11 -1.185121E-16 -1.867782E-09  1.097924E-11  2.297291E-13 -6.984833E-19 -1.097684E-11  0.000000E+00  0.000000E+00  0.000000E+00  0.000000E+00  0.000000E+00  0.000000E+00  0.000000E+00  0.000000E+00  1.440721E-01 -4.225246E-04 -8.007106E-10  1.440715E-01                                                                                                                                                                                                                                                                                                                                                                                                                                                                                              
  6.250000E+02  1.250000E+02 -5.225000E+03  1.816643E-09  2.396014E-11  6.446604E-16 -1.816485E-09  1.067686E-11  1.412189E-13  3.799629E-18 -1.067593E-11  0.000000E+00  0.000000E+00  0.000000E+00  0.000000E+00  0.000000E+00  0.000000E+00  0.000000E+00  0.000000E+00  1.444587E-01 -8.302994E-04  1.095982E-09  1.444563E-01                                                                                                                                                                                                                                                                                                                                                                                                                                                                                              
  8.750000E+02  1.250000E+02 -5.225000E+03  1.655049E-09 -3.381901E-11  7.726571E-16 -1.654703E-09  9.726639E-12 -1.993458E-13  4.554333E-18 -9.724596E-12  0.000000E+00  0.000000E+00  0.000000E+00  0.000000E+00  0.000000E+00  0.000000E+00  0.000000E+00  0.000000E+00  1.456362E-01 -9.769121E-04  5.837925E-10  1.456329E-01                                                                                                                                                                                                                                                                                                                                                                                                                                                                                              
  1.050000E+03  1.250000E+02 -5.225000E+03  1.298576E-09  1.025207E-15  2.081293E-15 -1.298576E-09  7.623313E-12  6.043094E-18  1.226835E-17 -7.623313E-12  0.000000E+00  0.000000E+00  0.000000E+00  0.000000E+00  0.000000E+00  0.000000E+00  0.000000E+00  0.000000E+00  1.483974E-01 -3.283972E-09  2.854734E-09  1.483974E-01                                                                                                                                                                                                                                                                                                                                                                                                                                                                                              
  1.225000E+03  1.250000E+02 -5.225000E+03  1.655047E-09  3.382276E-11  1.579234E-15 -1.654701E-09  9.726627E-12  1.993679E-13  9.308602E-18 -9.724584E-12  0.000000E+00  0.000000E+00  0.000000E+00  0.000000E+00  0.000000E+00  0.000000E+00  0.000000E+00  0.000000E+00  1.456362E-01  9.769114E-04  2.226624E-09  1.456329E-01                                                                                                                                                                                                                                                                                                                                                                                                                                                                                              
  1.475000E+03  1.250000E+02 -5.225000E+03  1.816642E-09 -2.395649E-11  2.107225E-15 -1.816484E-09  1.067686E-11 -1.411974E-13  1.241998E-17 -1.067593E-11  0.000000E+00  0.000000E+00  0.000000E+00  0.000000E+00  0.000000E+00  0.000000E+00  0.000000E+00  0.000000E+00  1.444587E-01  8.302963E-04  1.785745E-09  1.444563E-01                                                                                                                                                                                                                                                                                                                                                                                                                                                                                              
  1.725000E+03  1.250000E+02 -5.225000E+03  1.868187E-09 -3.897524E-11 -1.093307E-17 -1.867780E-09  1.097923E-11 -2.297130E-13 -6.443701E-20 -1.097682E-11  0.000000E+00  0.000000E+00  0.000000E+00  0.000000E+00  0.000000E+00  0.000000E+00  0.000000E+00  0.000000E+00  1.440721E-01  4.225195E-04  5.622128E-10  1.440715E-01                                                                                                                                                                                                                                                                                                                                                                                                                                                                                              
  1.975000E+03  1.250000E+02 -5.225000E+03  1.881568E-09 -1.666629E-11 -1.628870E-15 -1.881495E-09  1.105752E-11 -9.822653E-14 -9.600032E-18 -1.105708E-11  0.000000E+00  0.000000E+00  0.000000E+00  0.000000E+00  0.000000E+00  0.000000E+00  0.000000E+00  0.000000E+00  1.439520E-01  1.229229E-04 -2.629371E-09  1.439520E-01                                                                                                                                                                                                                                                                                                                                                                                                                                                                                              
  1.250000E+02  1.250000E+02 -4.975000E+03  3.203704E-09 -6.853396E-12 -1.190339E-15 -3.203697E-09  1.868110E-11 -4.002485E-14 -6.951726E-18 -1.868105E-11  0.000000E+00  0.000000E+00  0.000000E+00  0.000000E+00  0.000000E+00  0.000000E+00  0.000000E+00  0.000000E+00  1.625623E-01 -8.471262E-05 -4.768698E-10  1.625622E-01                                                                                                                                                                                                                                                                                                                                                                                                                                                                                              
  3.750000E+02  1.250000E+02 -4.975000E+03  3.169991E-09 -2.561289E-11 -7.425349E-16 -3.169888E-09  1.848472E-11 -1.495846E-13 -4.336535E-18 -1.848411E-11  0.000000E+00  0.000000E+00  0.000000E+00  0.000000E+00  0.000000E+00  0.000000E+00  0.000000E+00  0.000000E+00  1.626945E-01 -2.614582E-04  7.828800E-10  1.626943E-01                                                                                                                                                                                                                                                                                                                                                                                                                                                                                              
  6.250000E+02  1.250000E+02 -4.975000E+03  3.085418E-09 -5.069140E-11 -2.255119E-16 -3.085002E-09  1.799163E-11 -2.960533E-13 -1.317054E-18 -1.798920E-11  0.000000E+00  0.000000E+00  0.000000E+00  0.000000E+00  0.000000E+00  0.000000E+00  0.000000E+00  0.000000E+00  1.630233E-01 -4.081933E-04  9.246797E-10  1.630228E-01                                                                                                                                                                                                                                                                                                                                                                                                                                                                                              
  8.750000E+02  1.250000E+02 -4.975000E+03  2.933094E-09 -4.633989E-11  2.747070E-16 -2.932728E-09  1.710236E-11 -2.706424E-13  1.604405E-18 -1.710022E-11  0.000000E+00  0.000000E+00  0.000000E+00  0.000000E+00  0.000000E+00  0.000000E+00  0.000000E+00  0.000000E+00  1.636194E-01 -3.122146E-04  1.129919E-09  1.636191E-01                                                                                                                                                                                                                                                                                                                                                                                                                                                                                              
  1.050000E+03  1.250000E+02 -4.975000E+03  2.845074E-09  8.926566E-16  8.200048E-18 -2.845074E-09  1.658733E-11  5.213514E-18  4.789200E-20 -1.658733E-11  0.000000E+00  0.000000E+00  0.000000E+00  0.000000E+00  0.000000E+00  0.000000E+00  0.000000E+00  0.000000E+00  1.639763E-01 -2.054642E-09 -1.741835E-10  1.639763E-01                                                                                                                                                                                                                                                                                                                                                                                                                                                                                              
  1.225000E+03  1.250000E+02 -4.975000E+03  2.933093E-09  4.634341E-11 -1.201885E-16 -2.932727E-09  1.710236E-11  2.706630E-13 -7.019516E-19 -1.710021E-11  0.000000E+00  0.000000E+00  0.000000E+00  0.000000E+00  0.000000E+00  0.000000E+00  0.000000E+00  0.000000E+00  1.636194E-01  3.122132E-04 -3.961661E-10  1.636191E-01                                                                                                                                                                                                                                                                                                                                                                                                                                                                                              
  1.475000E+03  1.250000E+02 -4.975000E+03  3.085416E-09  5.069439E-11  9.763136E-16 -3.085000E-09  1.799162E-11  2.960707E-13  5.701949E-18 -1.798919E-11  0.000000E+00  0.000000E+00  0.000000E+00  0.000000E+00  0.000000E+00  0.000000E+00  0.000000E+00  0.000000E+00  1.630233E-01  4.081871E-04 -6.289511E-10  1.630228E-01                                                                                                                                                                                                                                                                                                                                                                                                                                                                                              
  1.725000E+03  1.250000E+02 -4.975000E+03  3.169986E-09  2.561506E-11 -9.372024E-17 -3.169883E-09  1.848469E-11  1.495972E-13 -5.473427E-19 -1.848408E-11  0.000000E+00  0.000000E+00  0.000000E+00  0.000000E+00  0.000000E+00  0.000000E+00  0.000000E+00  0.000000E+00  1.626945E-01  2.614508E-04 -2.775649E-10  1.626943E-01                                                                                                                                                                                                                                                                                                                                                                                                                                                                                              
  1.975000E+03  1.250000E+02 -4.975000E+03  3.203698E-09  6.855203E-12 -7.784769E-16 -3.203691E-09  1.868106E-11  4.003541E-14 -4.546401E-18 -1.868102E-11  0.000000E+00  0.000000E+00  0.000000E+00  0.000000E+00  0.000000E+00  0.000000E+00  0.000000E+00  0.000000E+00  1.625623E-01  8.471212E-05 -1.985746E-10  1.625622E-01                                                                                                                                                                                                                                                                                                                                                                                                                                                                                              
  1.250000E+02  1.250000E+02 -4.725000E+03  4.050289E-09 -4.854692E-12  4.734135E-16 -4.050286E-09  2.342099E-11 -2.807535E-14  2.737810E-18 -2.342097E-11  0.000000E+00  0.000000E+00  0.000000E+00  0.000000E+00  0.000000E+00  0.000000E+00  0.000000E+00  0.000000E+00  1.761717E-01 -4.142547E-05  1.463348E-09  1.761717E-01                                                                                                                                                                                                                                                                                                                                                                                                                                                                                              
  3.750000E+02  1.250000E+02 -4.725000E+03  4.007933E-09 -1.526981E-11  8.176194E-17 -4.007904E-09  2.317614E-11 -8.830780E-14  4.728416E-19 -2.317597E-11  0.000000E+00  0.000000E+00  0.000000E+00  0.000000E+00  0.000000E+00  0.000000E+00  0.000000E+00  0.000000E+00  1.762716E-01 -1.195888E-04  6.388251E-10  1.762716E-01                                                                                                                                                                                                                                                                                                                                                                                                                                                                                              
  6.250000E+02  1.250000E+02 -4.725000E+03  3.920162E-09 -2.380465E-11  3.837653E-16 -3.920090E-09  2.266863E-11 -1.376670E-13  2.219390E-18 -2.266821E-11  0.000000E+00  0.000000E+00  0.000000E+00  0.000000E+00  0.000000E+00  0.000000E+00  0.000000E+00  0.000000E+00  1.764810E-01 -1.639257E-04  7.527733E-10  1.764810E-01                                                                                                                                                                                                                                                                                                                                                                                                                                                                                              
  8.750000E+02  1.250000E+02 -4.725000E+03  3.807929E-09 -1.699715E-11  3.433745E-16 -3.807891E-09  2.201939E-11 -9.829831E-14  1.985818E-18 -2.201917E-11  0.000000E+00  0.000000E+00  0.000000E+00  0.000000E+00  0.000000E+00  0.000000E+00  0.000000E+00  0.000000E+00  1.767560E-01 -1.054672E-04  6.170155E-10  1.767560E-01                                                                                                                                                                                                                                                                                                                                                                                                                                                                                              
  1.050000E+03  1.250000E+02 -4.725000E+03  3.782597E-09  7.468004E-16  1.232161E-17 -3.782597E-09  2.187271E-11  4.318933E-18  7.125896E-20 -2.187271E-11  0.000000E+00  0.000000E+00  0.000000E+00  0.000000E+00  0.000000E+00  0.000000E+00  0.000000E+00  0.000000E+00  1.768223E-01 -2.250086E-09 -2.298419E-10  1.768223E-01                                                                                                                                                                                                                                                                                                                                                                                                                                                                                              
  1.225000E+03  1.250000E+02 -4.725000E+03  3.807928E-09  1.699984E-11  4.343350E-16 -3.807891E-09  2.201939E-11  9.831390E-14  2.511865E-18 -2.201917E-11  0.000000E+00  0.000000E+00  0.000000E+00  0.000000E+00  0.000000E+00  0.000000E+00  0.000000E+00  0.000000E+00  1.767560E-01  1.054623E-04 -4.311160E-10  1.767560E-01                                                                                                                                                                                                                                                                                                                                                                                                                                                                                              
  1.475000E+03  1.250000E+02 -4.725000E+03  3.920163E-09  2.380627E-11 -3.293028E-16 -3.920091E-09  2.266864E-11  1.376764E-13 -1.904422E-18 -2.266822E-11  0.000000E+00  0.000000E+00  0.000000E+00  0.000000E+00  0.000000E+00  0.000000E+00  0.000000E+00  0.000000E+00  1.764810E-01  1.639167E-04 -1.258425E-09  1.764810E-01                                                                                                                                                                                                                                                                                                                                                                                                                                                                                              
  1.725000E+03  1.250000E+02 -4.725000E+03  4.007929E-09  1.527052E-11 -3.255779E-16 -4.007900E-09  2.317612E-11  8.831191E-14 -1.882866E-18 -2.317595E-11  0.000000E+00  0.000000E+00  0.000000E+00  0.000000E+00  0.000000E+00  0.000000E+00  0.000000E+00  0.000000E+00  1.762716E-01  1.195800E-04 -1.501056E-10  1.762716E-01                                                                                                                                                                                                                                                                                                                                                                                                                                                                                              