Title="TOUGHREACT V3.30-OMP flowvector.tec: Liq & Gas Fluxes (kg/s/m^2), Pore Velocities (m/s), & Heat Fluxes (J/s/m2)"                                                                                                                                                                                                                                                                                                                                                                                                                                                                                                                                                                                                                                                                                                         
Variables= "X(m)"     "Y(m)"      "Z(m)"     "FluxLiq"   "FluxLiq_X"   "FluxLiq_Y"   "FluxLiq_Z"   "PorVelLiq"  "PorVelLiqX"  "PorVelLiqY"  "PorVelLiqZ"     "FluxGas"   "FluxGas_X"   "FluxGas_Y"   "FluxGas_Z"   "PorVelGas"  "PorVelGasX"  "PorVelGasY"  "PorVelGasZ"    "HeatFlux"  "HeatFlux_X"  "HeatFlux_Y"  "HeatFlux_Z"                                                                                                                                                                                                                                                                                                                                                                                                                                                                                                
Zone T= "1.00000000E+06 sec" I=     9 J=    10 K=    23 F=Point
  1.250000E+02  1.250000E+02 -5.425000E+03  5.529452E-10  6.163289E-11 -1.825641E-15 -5.494996E-10  3.267792E-12  3.655833E-13 -1.082890E-17 -3.247278E-12  0.000000E+00  0.000000E+00  0.000000E+00  0.000000E+00  0.000000E+00  0.000000E+00  0.000000E+00  0.000000E+00  6.674132E-02 -1.155241E-04 -2.474586E-09  6.674122E-02                                                                                                                                                                                                                                                                                                                                                                                                                                                                                              
  3.750000E+02  1.250000E+02 -5.425000E+03  5.802816E-10  1.870744E-10 -4.791923E-16 -5.492995E-10  3.430589E-12  1.109685E-12 -2.842419E-18 -3.246158E-12  0.000000E+00  0.000000E+00  0.000000E+00  0.000000E+00  0.000000E+00  0.000000E+00  0.000000E+00  0.000000E+00  6.678938E-02 -4.538861E-04 -7.873988E-10  6.678783E-02                                                                                                                                                                                                                                                                                                                                                                                                                                                                                              
  6.250000E+02  1.250000E+02 -5.425000E+03  6.166612E-10  3.004514E-10  2.084966E-15 -5.385165E-10  3.647681E-12  1.782336E-12  1.236807E-17 -3.182587E-12  0.000000E+00  0.000000E+00  0.000000E+00  0.000000E+00  0.000000E+00  0.000000E+00  0.000000E+00  0.000000E+00  6.698557E-02 -1.254495E-03  2.687326E-09  6.697382E-02                                                                                                                                                                                                                                                                                                                                                                                                                                                                                              
  8.750000E+02  1.250000E+02 -5.425000E+03  5.464516E-10  2.834469E-10  1.105460E-15 -4.671908E-10  3.233096E-12  1.681653E-12  6.558494E-18 -2.761332E-12  0.000000E+00  0.000000E+00  0.000000E+00  0.000000E+00  0.000000E+00  0.000000E+00  0.000000E+00  0.000000E+00  6.783871E-02 -3.718408E-03  4.141494E-10  6.773673E-02                                                                                                                                                                                                                                                                                                                                                                                                                                                                                              
  1.050000E+03  1.250000E+02 -5.425000E+03  1.820228E-10  3.444670E-15  7.508607E-16 -1.820228E-10  1.076002E-12  2.043916E-17  4.455834E-18 -1.076002E-12  0.000000E+00  0.000000E+00  0.000000E+00  0.000000E+00  0.000000E+00  0.000000E+00  0.000000E+00  0.000000E+00  7.019447E-02  1.503895E-09 -4.293045E-10  7.019447E-02                                                                                                                                                                                                                                                                                                                                                                                                                                                                                              
  1.225000E+03  1.250000E+02 -5.425000E+03  5.464500E-10 -2.834384E-10  7.184511E-16 -4.671941E-10  3.233087E-12 -1.681603E-12  4.262441E-18 -2.761351E-12  0.000000E+00  0.000000E+00  0.000000E+00  0.000000E+00  0.000000E+00  0.000000E+00  0.000000E+00  0.000000E+00  6.783871E-02  3.718412E-03  3.953934E-10  6.773672E-02                                                                                                                                                                                                                                                                                                                                                                                                                                                                                              
  1.475000E+03  1.250000E+02 -5.425000E+03  6.166606E-10 -3.004459E-10 -5.348045E-16 -5.385189E-10  3.647678E-12 -1.782303E-12 -3.172474E-18 -3.182601E-12  0.000000E+00  0.000000E+00  0.000000E+00  0.000000E+00  0.000000E+00  0.000000E+00  0.000000E+00  0.000000E+00  6.698556E-02  1.254493E-03 -1.485838E-09  6.697382E-02                                                                                                                                                                                                                                                                                                                                                                                                                                                                                              
  1.725000E+03  1.250000E+02 -5.425000E+03  5.802841E-10 -1.870747E-10 -1.305018E-15 -5.493020E-10  3.430604E-12 -1.109686E-12 -7.740963E-18 -3.246173E-12  0.000000E+00  0.000000E+00  0.000000E+00  0.000000E+00  0.000000E+00  0.000000E+00  0.000000E+00  0.000000E+00  6.678937E-02  4.538810E-04 -1.611980E-09  6.678783E-02                                                                                                                                                                                                                                                                                                                                                                                                                                                                                              
  1.975000E+03  1.250000E+02 -5.425000E+03  5.529454E-10 -6.163365E-11  2.388707E-16 -5.494997E-10  3.267793E-12 -3.655878E-13  1.416876E-18 -3.247279E-12  0.000000E+00  0.000000E+00  0.000000E+00  0.000000E+00  0.000000E+00  0.000000E+00  0.000000E+00  0.000000E+00  6.674132E-02  1.155240E-04 -1.265635E-09  6.674122E-02                                                                                                                                                                                                                                                                                                                                                                                                                                                                                              
  1.250000E+02  1.250000E+02 -5.225000E+03  1.881513E-09  1.666571E-11 -1.723920E-15 -1.881440E-09  1.105720E-11  9.822315E-14 -1.016022E-17 -1.105676E-11  0.000000E+00  0.000000E+00  0.000000E+00  0.000000E+00  0.000000E+00  0.000000E+00  0.000000E+00  0.000000E+00  1.439531E-01 -1.229165E-04 -3.363812E-09  1.439530E-01                                                                                                                                                                                                                                                                                                                                                                                                                                                                                              
  3.750000E+02  1.250000E+02 -5.225000E+03  1.868131E-09  3.897192E-11 -9.300298E-16 -1.867724E-09  1.097890E-11  2.296935E-13 -5.481387E-18 -1.097650E-11  0.000000E+00  0.000000E+00  0.000000E+00  0.000000E+00  0.000000E+00  0.000000E+00  0.000000E+00  0.000000E+00  1.440732E-01 -4.225098E-04 -1.586702E-09  1.440726E-01                                                                                                                                                                                                                                                                                                                                                                                                                                                                                              
  6.250000E+02  1.250000E+02 -5.225000E+03  1.816587E-09  2.395549E-11  7.940974E-16 -1.816430E-09  1.067654E-11  1.411915E-13  4.680412E-18 -1.067561E-11  0.000000E+00  0.000000E+00  0.000000E+00  0.000000E+00  0.000000E+00  0.000000E+00  0.000000E+00  0.000000E+00  1.444598E-01 -8.302814E-04  1.227252E-09  1.444574E-01                                                                                                                                                                                                                                                                                                                                                                                                                                                                                              
  8.750000E+02  1.250000E+02 -5.225000E+03  1.654996E-09 -3.382113E-11  1.288701E-15 -1.654651E-09  9.726334E-12 -1.993584E-13  7.596095E-18 -9.724291E-12  0.000000E+00  0.000000E+00  0.000000E+00  0.000000E+00  0.000000E+00  0.000000E+00  0.000000E+00  0.000000E+00  1.456372E-01 -9.769024E-04  1.090986E-09  1.456339E-01                                                                                                                                                                                                                                                                                                                                                                                                                                                                                              
  1.050000E+03  1.250000E+02 -5.225000E+03  1.298523E-09 -1.246999E-15  1.158664E-15 -1.298523E-09  7.623006E-12 -7.350368E-18  6.829841E-18 -7.623006E-12  0.000000E+00  0.000000E+00  0.000000E+00  0.000000E+00  0.000000E+00  0.000000E+00  0.000000E+00  0.000000E+00  1.483985E-01 -5.486336E-09  1.921971E-09  1.483985E-01                                                                                                                                                                                                                                                                                                                                                                                                                                                                                              
  1.225000E+03  1.250000E+02 -5.225000E+03  1.654998E-09  3.382528E-11  3.142122E-15 -1.654652E-09  9.726343E-12  1.993828E-13  1.852086E-17 -9.724299E-12  0.000000E+00  0.000000E+00  0.000000E+00  0.000000E+00  0.000000E+00  0.000000E+00  0.000000E+00  0.000000E+00  1.456372E-01  9.769021E-04  3.749928E-09  1.456339E-01                                                                                                                                                                                                                                                                                                                                                                                                                                                                                              
  1.475000E+03  1.250000E+02 -5.225000E+03  1.816588E-09 -2.395141E-11  6.451334E-16 -1.816431E-09  1.067655E-11 -1.411675E-13  3.802418E-18 -1.067562E-11  0.000000E+00  0.000000E+00  0.000000E+00  0.000000E+00  0.000000E+00  0.000000E+00  0.000000E+00  0.000000E+00  1.444598E-01  8.302788E-04  3.304266E-10  1.444574E-01                                                                                                                                                                                                                                                                                                                                                                                                                                                                                              
  1.725000E+03  1.250000E+02 -5.225000E+03  1.868130E-09 -3.897213E-11  1.366556E-15 -1.867723E-09  1.097890E-11 -2.296948E-13  8.054173E-18 -1.097649E-11  0.000000E+00  0.000000E+00  0.000000E+00  0.000000E+00  0.000000E+00  0.000000E+00  0.000000E+00  0.000000E+00  1.440732E-01  4.225017E-04  1.900393E-09  1.440726E-01                                                                                                                                                                                                                                                                                                                                                                                                                                                                                              
  1.975000E+03  1.250000E+02 -5.225000E+03  1.881508E-09 -1.666460E-11 -6.176782E-17 -1.881434E-09  1.105717E-11 -9.821662E-14 -3.640396E-19 -1.105673E-11  0.000000E+00  0.000000E+00  0.000000E+00  0.000000E+00  0.000000E+00  0.000000E+00  0.000000E+00  0.000000E+00  1.439531E-01  1.229163E-04 -1.073799E-09  1.439530E-01                                                                                                                                                                                                                                                                                                                                                                                                                                                                                              
  1.250000E+02  1.250000E+02 -4.975000E+03  3.203558E-09 -6.853965E-12 -1.513199E-15 -3.203550E-09  1.868025E-11 -4.002819E-14 -8.837273E-18 -1.868020E-11  0.000000E+00  0.000000E+00  0.000000E+00  0.000000E+00  0.000000E+00  0.000000E+00  0.000000E+00  0.000000E+00  1.625639E-01 -8.470687E-05 -7.664159E-10  1.625639E-01                                                                                                                                                                                                                                                                                                                                                                                                                                                                                              
  3.750000E+02  1.250000E+02 -4.975000E+03  3.169847E-09 -2.561546E-11 -1.300354E-15 -3.169744E-09  1.848388E-11 -1.495996E-13 -7.594297E-18 -1.848328E-11  0.000000E+00  0.000000E+00  0.000000E+00  0.000000E+00  0.000000E+00  0.000000E+00  0.000000E+00  0.000000E+00  1.626962E-01 -2.614448E-04  2.603254E-10  1.626960E-01                                                                                                                                                                                                                                                                                                                                                                                                                                                                                              
  6.250000E+02  1.250000E+02 -4.975000E+03  3.085276E-09 -5.069289E-11  9.046948E-16 -3.084860E-09  1.799081E-11 -2.960620E-13  5.283676E-18 -1.798837E-11  0.000000E+00  0.000000E+00  0.000000E+00  0.000000E+00  0.000000E+00  0.000000E+00  0.000000E+00  0.000000E+00  1.630249E-01 -4.081776E-04  1.997093E-09  1.630244E-01                                                                                                                                                                                                                                                                                                                                                                                                                                                                                              
  8.750000E+02  1.250000E+02 -4.975000E+03  2.932956E-09 -4.633921E-11  6.880625E-16 -2.932590E-09  1.710156E-11 -2.706386E-13  4.018576E-18 -1.709942E-11  0.000000E+00  0.000000E+00  0.000000E+00  0.000000E+00  0.000000E+00  0.000000E+00  0.000000E+00  0.000000E+00  1.636210E-01 -3.122050E-04  1.514770E-09  1.636207E-01                                                                                                                                                                                                                                                                                                                                                                                                                                                                                              
  1.050000E+03  1.250000E+02 -4.975000E+03  2.844936E-09  3.312049E-16 -1.527405E-17 -2.844936E-09  1.658653E-11  1.934392E-18 -8.920737E-20 -1.658653E-11  0.000000E+00  0.000000E+00  0.000000E+00  0.000000E+00  0.000000E+00  0.000000E+00  0.000000E+00  0.000000E+00  1.639779E-01 -2.581397E-09 -1.805752E-10  1.639779E-01                                                                                                                                                                                                                                                                                                                                                                                                                                                                                              
  1.225000E+03  1.250000E+02 -4.975000E+03  2.932954E-09  4.634403E-11  6.823457E-16 -2.932588E-09  1.710155E-11  2.706667E-13  3.985187E-18 -1.709941E-11  0.000000E+00  0.000000E+00  0.000000E+00  0.000000E+00  0.000000E+00  0.000000E+00  0.000000E+00  0.000000E+00  1.636210E-01  3.122048E-04  3.731171E-10  1.636207E-01                                                                                                                                                                                                                                                                                                                                                                                                                                                                                              
  1.475000E+03  1.250000E+02 -4.975000E+03  3.085276E-09  5.069553E-11  3.041762E-16 -3.084859E-09  1.799081E-11  2.960775E-13  1.776476E-18 -1.798837E-11  0.000000E+00  0.000000E+00  0.000000E+00  0.000000E+00  0.000000E+00  0.000000E+00  0.000000E+00  0.000000E+00  1.630249E-01  4.081711E-04 -1.279307E-09  1.630244E-01                                                                                                                                                                                                                                                                                                                                                                                                                                                                                              
  1.725000E+03  1.250000E+02 -4.975000E+03  3.169841E-09  2.561666E-11  1.105571E-15 -3.169737E-09  1.848385E-11  1.496066E-13  6.456729E-18 -1.848324E-11  0.000000E+00  0.000000E+00  0.000000E+00  0.000000E+00  0.000000E+00  0.000000E+00  0.000000E+00  0.000000E+00  1.626962E-01  2.614365E-04  8.435467E-10  1.626960E-01                                                                                                                                                                                                                                                                                                                                                                                                                                                                                              
  1.975000E+03  1.250000E+02 -4.975000E+03  3.203550E-09  6.857011E-12 -2.656445E-15 -3.203543E-09  1.868021E-11  4.004597E-14 -1.551397E-17 -1.868016E-11  0.000000E+00  0.000000E+00  0.000000E+00  0.000000E+00  0.000000E+00  0.000000E+00  0.000000E+00  0.000000E+00  1.625639E-01  8.470753E-05 -1.964255E-09  1.625639E-01                                                                                                                                                                                                                                                                                                                                                                                                                                                                                              
  1.250000E+02  1.250000E+02 -4.725000E+03  4.050013E-09 -4.855793E-12  2.139003E-16 -4.050010E-09  2.341940E-11 -2.808173E-14  1.237013E-18 -2.341938E-11  0.000000E+00  0.000000E+00  0.000000E+00  0.000000E+00  0.000000E+00  0.000000E+00  0.000000E+00  0.000000E+00  1.761734E-01 -4.142240E-05  1.218070E-09  1.761733E-01                                                                                                                                                                                                                                                                                                                                                                                                                                                                                              
  3.750000E+02  1.250000E+02 -4.725000E+03  4.007658E-09 -1.527048E-11  1.366351E-16 -4.007629E-09  2.317456E-11 -8.831168E-14  7.901815E-19 -2.317439E-11  0.000000E+00  0.000000E+00  0.000000E+00  0.000000E+00  0.000000E+00  0.000000E+00  0.000000E+00  0.000000E+00  1.762733E-01 -1.195791E-04  6.898923E-10  1.762732E-01                                                                                                                                                                                                                                                                                                                                                                                                                                                                                              
  6.250000E+02  1.250000E+02 -4.725000E+03  3.919891E-09 -2.380454E-11 -3.946636E-16 -3.919818E-09  2.266707E-11 -1.376664E-13 -2.282417E-18 -2.266665E-11  0.000000E+00  0.000000E+00  0.000000E+00  0.000000E+00  0.000000E+00  0.000000E+00  0.000000E+00  0.000000E+00  1.764827E-01 -1.639145E-04  4.292679E-11  1.764826E-01                                                                                                                                                                                                                                                                                                                                                                                                                                                                                              
  8.750000E+02  1.250000E+02 -4.725000E+03  3.807661E-09 -1.699791E-11 -1.815371E-16 -3.807623E-09  2.201785E-11 -9.830274E-14 -1.049873E-18 -2.201763E-11  0.000000E+00  0.000000E+00  0.000000E+00  0.000000E+00  0.000000E+00  0.000000E+00  0.000000E+00  0.000000E+00  1.767576E-01 -1.054622E-04  1.347729E-10  1.767576E-01                                                                                                                                                                                                                                                                                                                                                                                                                                                                                              
  1.050000E+03  1.250000E+02 -4.725000E+03  3.782330E-09 -2.355490E-17  1.367081E-16 -3.782330E-09  2.187117E-11 -1.362214E-19  7.906176E-19 -2.187117E-11  0.000000E+00  0.000000E+00  0.000000E+00  0.000000E+00  0.000000E+00  0.000000E+00  0.000000E+00  0.000000E+00  1.768239E-01 -2.941589E-09 -1.123928E-10  1.768239E-01                                                                                                                                                                                                                                                                                                                                                                                                                                                                                              
  1.225000E+03  1.250000E+02 -4.725000E+03  3.807660E-09  1.699999E-11  1.146496E-15 -3.807622E-09  2.201784E-11  9.831479E-14  6.630463E-18 -2.201762E-11  0.000000E+00  0.000000E+00  0.000000E+00  0.000000E+00  0.000000E+00  0.000000E+00  0.000000E+00  0.000000E+00  1.767576E-01  1.054567E-04  1.983536E-10  1.767576E-01                                                                                                                                                                                                                                                                                                                                                                                                                                                                                              
  1.475000E+03  1.250000E+02 -4.725000E+03  3.919893E-09  2.380679E-11 -1.390072E-16 -3.919820E-09  2.266708E-11  1.376794E-13 -8.039059E-19 -2.266666E-11  0.000000E+00  0.000000E+00  0.000000E+00  0.000000E+00  0.000000E+00  0.000000E+00  0.000000E+00  0.000000E+00  1.764827E-01  1.639061E-04 -1.077875E-09  1.764826E-01                                                                                                                                                                                                                                                                                                                                                                                                                                                                                              
  1.725000E+03  1.250000E+02 -4.725000E+03  4.007654E-09  1.527094E-11 -4.358392E-16 -4.007625E-09  2.317453E-11  8.831432E-14 -2.520524E-18 -2.317437E-11  0.000000E+00  0.000000E+00  0.000000E+00  0.000000E+00  0.000000E+00  0.000000E+00  0.000000E+00  0.000000E+00  1.762733E-01  1.195701E-04 -2.419955E-10  1.762732E-01                                                                                                                                                                                                                                                                                                                                                                                                                                                                                              