Title="TOUGHREACT V3.30-OMP flowvector.tec: Liq & Gas Fluxes (kg/s/m^2), Pore Velocities (m/s), & Heat Fluxes (J/s/m2)"                                                                                                                                                                                                                                                                                                                                                                                                                                                                                                                                                                                                                                                                                                         
Variables= "X(m)"     "Y(m)"      "Z(m)"     "FluxLiq"   "FluxLiq_X"   "FluxLiq_Y"   "FluxLiq_Z"   "PorVelLiq"  "PorVelLiqX"  "PorVelLiqY"  "PorVelLiqZ"     "FluxGas"   "FluxGas_X"   "FluxGas_Y"   "FluxGas_Z"   "PorVelGas"  "PorVelGasX"  "PorVelGasY"  "PorVelGasZ"    "HeatFlux"  "HeatFlux_X"  "HeatFlux_Y"  "HeatFlux_Z"                                                                                                                                                                                                                                                                                                                                                                                                                                                                                                
Zone T= "1.00000000E+06 sec" I=     9 J=    10 K=    23 F=Point
  1.250000E+02  1.250000E+02 -5.425000E+03  4.865640E-07  1.523269E-15  3.580633E-15  4.865640E-07  2.785373E-09  8.756489E-18  2.058321E-17  2.785373E-09  0.000000E+00  0.000000E+00  0.000000E+00  0.000000E+00  0.000000E+00  0.000000E+00  0.000000E+00  0.000000E+00  5.952303E-01  1.587495E-09  3.745716E-09  5.952303E-01                                                                                                                                                                                                                                                                                                                                                                                                                                                                                              
  3.750000E+02  1.250000E+02 -5.425000E+03  4.865640E-07 -4.905431E-15 -1.330123E-15  4.865640E-07  2.785373E-09 -2.819879E-17 -7.646190E-18  2.785373E-09  0.000000E+00  0.000000E+00  0.000000E+00  0.000000E+00  0.000000E+00  0.000000E+00  0.000000E+00  0.000000E+00  5.952303E-01 -5.050337E-09 -1.383209E-09  5.952303E-01                                                                                                                                                                                                                                                                                                                                                                                                                                                                                              
  6.250000E+02  1.250000E+02 -5.425000E+03  4.865640E-07 -3.200622E-13  4.233691E-15  4.865640E-07  2.785373E-09 -1.839872E-15  2.433731E-17  2.785373E-09  0.000000E+00  0.000000E+00  0.000000E+00  0.000000E+00  0.000000E+00  0.000000E+00  0.000000E+00  0.000000E+00  5.952303E-01 -3.259281E-07  4.421066E-09  5.952303E-01                                                                                                                                                                                                                                                                                                                                                                                                                                                                                              
  8.750000E+02  1.250000E+02 -5.425000E+03  4.865644E-07 -3.400792E-11  3.831727E-16  4.865644E-07  2.785375E-09 -1.954940E-13  2.202662E-18  2.785375E-09  0.000000E+00  0.000000E+00  0.000000E+00  0.000000E+00  0.000000E+00  0.000000E+00  0.000000E+00  0.000000E+00  5.952307E-01 -3.551074E-05  4.026738E-10  5.952307E-01                                                                                                                                                                                                                                                                                                                                                                                                                                                                                              
  1.050000E+03  1.250000E+02 -5.425000E+03  4.865938E-07  1.254202E-15  4.456290E-16  4.865938E-07  2.785543E-09  7.209760E-18  2.561691E-18  2.785543E-09  0.000000E+00  0.000000E+00  0.000000E+00  0.000000E+00  0.000000E+00  0.000000E+00  0.000000E+00  0.000000E+00  5.952616E-01  1.287637E-09  4.607462E-10  5.952616E-01                                                                                                                                                                                                                                                                                                                                                                                                                                                                                              
  1.225000E+03  1.250000E+02 -5.425000E+03  4.865644E-07  3.401500E-11 -8.478254E-16  4.865644E-07  2.785375E-09  1.955347E-13 -4.873710E-18  2.785375E-09  0.000000E+00  0.000000E+00  0.000000E+00  0.000000E+00  0.000000E+00  0.000000E+00  0.000000E+00  0.000000E+00  5.952307E-01  3.551810E-05 -8.599483E-10  5.952307E-01                                                                                                                                                                                                                                                                                                                                                                                                                                                                                              
  1.475000E+03  1.250000E+02 -5.425000E+03  4.865640E-07  3.196896E-13 -4.898597E-15  4.865640E-07  2.785373E-09  1.837730E-15 -2.815951E-17  2.785373E-09  0.000000E+00  0.000000E+00  0.000000E+00  0.000000E+00  0.000000E+00  0.000000E+00  0.000000E+00  0.000000E+00  5.952303E-01  3.255511E-07 -5.094037E-09  5.952303E-01                                                                                                                                                                                                                                                                                                                                                                                                                                                                                              
  1.725000E+03  1.250000E+02 -5.425000E+03  4.865640E-07  7.498379E-16  1.215044E-15  4.865640E-07  2.785373E-09  4.310431E-18  6.984662E-18  2.785373E-09  0.000000E+00  0.000000E+00  0.000000E+00  0.000000E+00  0.000000E+00  0.000000E+00  0.000000E+00  0.000000E+00  5.952303E-01  7.275883E-10  1.263320E-09  5.952303E-01                                                                                                                                                                                                                                                                                                                                                                                                                                                                                              
  1.975000E+03  1.250000E+02 -5.425000E+03  4.865640E-07  5.158659E-16 -1.799305E-15  4.865640E-07  2.785373E-09  2.965447E-18 -1.034328E-17  2.785373E-09  0.000000E+00  0.000000E+00  0.000000E+00  0.000000E+00  0.000000E+00  0.000000E+00  0.000000E+00  0.000000E+00  5.952303E-01  5.465112E-10 -1.868348E-09  5.952303E-01                                                                                                                                                                                                                                                                                                                                                                                                                                                                                              
  1.250000E+02  1.250000E+02 -5.225000E+03  9.552961E-07  3.968155E-16  1.002353E-16  9.552961E-07  5.444017E-09  2.262131E-18  5.714129E-19  5.444017E-09  0.000000E+00  0.000000E+00  0.000000E+00  0.000000E+00  0.000000E+00  0.000000E+00  0.000000E+00  0.000000E+00  1.155653E+00  3.970612E-10  9.986723E-11  1.155653E+00                                                                                                                                                                                                                                                                                                                                                                                                                                                                                              
  3.750000E+02  1.250000E+02 -5.225000E+03  9.552961E-07  4.205936E-16  1.703359E-16  9.552961E-07  5.444017E-09  2.397683E-18  9.710361E-19  5.444017E-09  0.000000E+00  0.000000E+00  0.000000E+00  0.000000E+00  0.000000E+00  0.000000E+00  0.000000E+00  0.000000E+00  1.155653E+00  4.177826E-10  1.724602E-10  1.155653E+00                                                                                                                                                                                                                                                                                                                                                                                                                                                                                              
  6.250000E+02  1.250000E+02 -5.225000E+03  9.552961E-07 -4.987169E-15 -1.150905E-17  9.552961E-07  5.444017E-09 -2.843042E-17 -6.560979E-20  5.444017E-09  0.000000E+00  0.000000E+00  0.000000E+00  0.000000E+00  0.000000E+00  0.000000E+00  0.000000E+00  0.000000E+00  1.155653E+00 -4.898640E-09 -1.248765E-11  1.155653E+00                                                                                                                                                                                                                                                                                                                                                                                                                                                                                              
  8.750000E+02  1.250000E+02 -5.225000E+03  9.552965E-07 -3.806665E-13  3.738961E-17  9.552965E-07  5.444020E-09 -2.170070E-15  2.131474E-19  5.444020E-09  0.000000E+00  0.000000E+00  0.000000E+00  0.000000E+00  0.000000E+00  0.000000E+00  0.000000E+00  0.000000E+00  1.155653E+00 -3.741420E-07  3.764166E-11  1.155653E+00                                                                                                                                                                                                                                                                                                                                                                                                                                                                                              
  1.050000E+03  1.250000E+02 -5.225000E+03  9.553263E-07 -1.512449E-16 -1.693785E-17  9.553263E-07  5.444190E-09 -8.622036E-19 -9.655780E-20  5.444190E-09  0.000000E+00  0.000000E+00  0.000000E+00  0.000000E+00  0.000000E+00  0.000000E+00  0.000000E+00  0.000000E+00  1.155685E+00 -1.523737E-10 -1.762949E-11  1.155685E+00                                                                                                                                                                                                                                                                                                                                                                                                                                                                                              
  1.225000E+03  1.250000E+02 -5.225000E+03  9.552965E-07  3.809218E-13  2.553509E-17  9.552965E-07  5.444020E-09  2.171526E-15  1.455682E-19  5.444020E-09  0.000000E+00  0.000000E+00  0.000000E+00  0.000000E+00  0.000000E+00  0.000000E+00  0.000000E+00  0.000000E+00  1.155653E+00  3.743980E-07  2.542972E-11  1.155653E+00                                                                                                                                                                                                                                                                                                                                                                                                                                                                                              
  1.475000E+03  1.250000E+02 -5.225000E+03  9.552961E-07  4.943186E-15 -5.415965E-17  9.552961E-07  5.444017E-09  2.817969E-17 -3.087486E-19  5.444017E-09  0.000000E+00  0.000000E+00  0.000000E+00  0.000000E+00  0.000000E+00  0.000000E+00  0.000000E+00  0.000000E+00  1.155653E+00  4.853904E-09 -5.384980E-11  1.155653E+00                                                                                                                                                                                                                                                                                                                                                                                                                                                                                              
  1.725000E+03  1.250000E+02 -5.225000E+03  9.552961E-07 -6.294641E-16  4.334154E-17  9.552961E-07  5.444017E-09 -3.588394E-18  2.470777E-19  5.444017E-09  0.000000E+00  0.000000E+00  0.000000E+00  0.000000E+00  0.000000E+00  0.000000E+00  0.000000E+00  0.000000E+00  1.155653E+00 -6.278305E-10  4.390019E-11  1.155653E+00                                                                                                                                                                                                                                                                                                                                                                                                                                                                                              
  1.975000E+03  1.250000E+02 -5.225000E+03  9.552961E-07 -1.551550E-16  2.148718E-16  9.552961E-07  5.444017E-09 -8.844942E-19  1.224922E-18  5.444017E-09  0.000000E+00  0.000000E+00  0.000000E+00  0.000000E+00  0.000000E+00  0.000000E+00  0.000000E+00  0.000000E+00  1.155653E+00 -1.539881E-10  2.170183E-10  1.155653E+00                                                                                                                                                                                                                                                                                                                                                                                                                                                                                              
  1.250000E+02  1.250000E+02 -4.975000E+03  9.982420E-07  1.119155E-14 -1.266243E-16  9.982420E-07  5.632499E-09  6.316027E-17 -7.146126E-19  5.632499E-09  0.000000E+00  0.000000E+00  0.000000E+00  0.000000E+00  0.000000E+00  0.000000E+00  0.000000E+00  0.000000E+00  1.157106E+00  1.050211E-08 -1.191651E-10  1.157106E+00                                                                                                                                                                                                                                                                                                                                                                                                                                                                                              
  3.750000E+02  1.250000E+02 -4.975000E+03  9.982428E-07  3.366922E-14  1.678430E-16  9.982428E-07  5.632504E-09  1.900145E-16  9.472330E-19  5.632504E-09  0.000000E+00  0.000000E+00  0.000000E+00  0.000000E+00  0.000000E+00  0.000000E+00  0.000000E+00  0.000000E+00  1.157106E+00  3.159442E-08  1.586246E-10  1.157106E+00                                                                                                                                                                                                                                                                                                                                                                                                                                                                                              
  6.250000E+02  1.250000E+02 -4.975000E+03  9.982444E-07  5.620482E-14  8.156326E-17  9.982444E-07  5.632513E-09  3.171956E-16  4.603076E-19  5.632513E-09  0.000000E+00  0.000000E+00  0.000000E+00  0.000000E+00  0.000000E+00  0.000000E+00  0.000000E+00  0.000000E+00  1.157108E+00  5.273820E-08  7.376632E-11  1.157108E+00                                                                                                                                                                                                                                                                                                                                                                                                                                                                                              
  8.750000E+02  1.250000E+02 -4.975000E+03  9.982469E-07  7.076303E-14  1.661620E-16  9.982469E-07  5.632527E-09  3.993558E-16  9.377460E-19  5.632527E-09  0.000000E+00  0.000000E+00  0.000000E+00  0.000000E+00  0.000000E+00  0.000000E+00  0.000000E+00  0.000000E+00  1.157110E+00  6.639537E-08  1.605094E-10  1.157110E+00                                                                                                                                                                                                                                                                                                                                                                                                                                                                                              
  1.050000E+03  1.250000E+02 -4.975000E+03  9.982492E-07  1.161073E-16 -1.349622E-16  9.982492E-07  5.632540E-09  6.552590E-19 -7.616679E-19  5.632540E-09  0.000000E+00  0.000000E+00  0.000000E+00  0.000000E+00  0.000000E+00  0.000000E+00  0.000000E+00  0.000000E+00  1.157112E+00  1.124055E-10 -1.276300E-10  1.157112E+00                                                                                                                                                                                                                                                                                                                                                                                                                                                                                              
  1.225000E+03  1.250000E+02 -4.975000E+03  9.982469E-07 -7.066503E-14 -1.937500E-17  9.982469E-07  5.632527E-09 -3.988027E-16 -1.093441E-19  5.632527E-09  0.000000E+00  0.000000E+00  0.000000E+00  0.000000E+00  0.000000E+00  0.000000E+00  0.000000E+00  0.000000E+00  1.157110E+00 -6.630277E-08 -1.941148E-11  1.157110E+00                                                                                                                                                                                                                                                                                                                                                                                                                                                                                              
  1.475000E+03  1.250000E+02 -4.975000E+03  9.982444E-07 -5.647848E-14  7.111210E-17  9.982444E-07  5.632513E-09 -3.187400E-16  4.013258E-19  5.632513E-09  0.000000E+00  0.000000E+00  0.000000E+00  0.000000E+00  0.000000E+00  0.000000E+00  0.000000E+00  0.000000E+00  1.157108E+00 -5.300058E-08  6.797024E-11  1.157108E+00                                                                                                                                                                                                                                                                                                                                                                                                                                                                                              
  1.725000E+03  1.250000E+02 -4.975000E+03  9.982428E-07 -3.409569E-14  1.666231E-16  9.982428E-07  5.632504E-09 -1.924213E-16  9.403482E-19  5.632504E-09  0.000000E+00  0.000000E+00  0.000000E+00  0.000000E+00  0.000000E+00  0.000000E+00  0.000000E+00  0.000000E+00  1.157106E+00 -3.199936E-08  1.575495E-10  1.157106E+00                                                                                                                                                                                                                                                                                                                                                                                                                                                                                              
  1.975000E+03  1.250000E+02 -4.975000E+03  9.982420E-07 -1.136247E-14  2.215685E-16  9.982420E-07  5.632499E-09 -6.412485E-17  1.250436E-18  5.632499E-09  0.000000E+00  0.000000E+00  0.000000E+00  0.000000E+00  0.000000E+00  0.000000E+00  0.000000E+00  0.000000E+00  1.157105E+00 -1.066448E-08  2.130831E-10  1.157105E+00                                                                                                                                                                                                                                                                                                                                                                                                                                                                                              
  1.250000E+02  1.250000E+02 -4.725000E+03  7.944994E-06  7.794709E-13 -1.230368E-14  7.944994E-06  4.432561E-08  4.357505E-15 -6.878173E-17  4.432561E-08  0.000000E+00  0.000000E+00  0.000000E+00  0.000000E+00  0.000000E+00  0.000000E+00  0.000000E+00  0.000000E+00  7.325443E+00  6.966545E-07 -1.139426E-08  7.325443E+00                                                                                                                                                                                                                                                                                                                                                                                                                                                                                              
  3.750000E+02  1.250000E+02 -4.725000E+03  7.945001E-06  2.342178E-12  1.296869E-14  7.945001E-06  4.432565E-08  1.309357E-14  7.249933E-17  4.432565E-08  0.000000E+00  0.000000E+00  0.000000E+00  0.000000E+00  0.000000E+00  0.000000E+00  0.000000E+00  0.000000E+00  7.325448E+00  2.093616E-06  1.200950E-08  7.325448E+00                                                                                                                                                                                                                                                                                                                                                                                                                                                                                              
  6.250000E+02  1.250000E+02 -4.725000E+03  7.945013E-06  3.925296E-12  1.822812E-14  7.945013E-06  4.432572E-08  2.194373E-14  1.019013E-16  4.432572E-08  0.000000E+00  0.000000E+00  0.000000E+00  0.000000E+00  0.000000E+00  0.000000E+00  0.000000E+00  0.000000E+00  7.325459E+00  3.509401E-06  1.662228E-08  7.325459E+00                                                                                                                                                                                                                                                                                                                                                                                                                                                                                              
  8.750000E+02  1.250000E+02 -4.725000E+03  7.945031E-06  5.194854E-12  3.991920E-15  7.945031E-06  4.432582E-08  2.904098E-14  2.231618E-17  4.432582E-08  0.000000E+00  0.000000E+00  0.000000E+00  0.000000E+00  0.000000E+00  0.000000E+00  0.000000E+00  0.000000E+00  7.325475E+00  4.645018E-06  3.695264E-09  7.325475E+00                                                                                                                                                                                                                                                                                                                                                                                                                                                                                              
  1.050000E+03  1.250000E+02 -4.725000E+03  7.945047E-06  1.362356E-14 -1.214721E-14  7.945047E-06  4.432593E-08  7.616032E-17 -6.790701E-17  4.432593E-08  0.000000E+00  0.000000E+00  0.000000E+00  0.000000E+00  0.000000E+00  0.000000E+00  0.000000E+00  0.000000E+00  7.325472E+00  1.267834E-08 -1.118124E-08  7.325472E+00                                                                                                                                                                                                                                                                                                                                                                                                                                                                                              
  1.225000E+03  1.250000E+02 -4.725000E+03  7.945031E-06 -5.178769E-12 -7.809591E-15  7.945031E-06  4.432582E-08 -2.895107E-14 -4.365825E-17  4.432582E-08  0.000000E+00  0.000000E+00  0.000000E+00  0.000000E+00  0.000000E+00  0.000000E+00  0.000000E+00  0.000000E+00  7.325475E+00 -4.630278E-06 -7.086809E-09  7.325475E+00                                                                                                                                                                                                                                                                                                                                                                                                                                                                                              
  1.475000E+03  1.250000E+02 -4.725000E+03  7.945013E-06 -3.946614E-12 -2.566577E-15  7.945013E-06  4.432572E-08 -2.206290E-14 -1.434803E-17  4.432572E-08  0.000000E+00  0.000000E+00  0.000000E+00  0.000000E+00  0.000000E+00  0.000000E+00  0.000000E+00  0.000000E+00  7.325459E+00 -3.529135E-06 -2.238157E-09  7.325459E+00                                                                                                                                                                                                                                                                                                                                                                                                                                                                                              
  1.725000E+03  1.250000E+02 -4.725000E+03  7.945001E-06 -2.374746E-12  1.815199E-14  7.945001E-06  4.432565E-08 -1.327563E-14  1.014757E-16  4.432565E-08  0.000000E+00  0.000000E+00  0.000000E+00  0.000000E+00  0.000000E+00  0.000000E+00  0.000000E+00  0.000000E+00  7.325448E+00 -2.123619E-06  1.671733E-08  7.325448E+00                                                                                                                                                                                                                                                                                                                                                                                                                                                                                              