Title="TOUGHREACT V3.30-OMP flowvector.tec: Liq & Gas Fluxes (kg/s/m^2), Pore Velocities (m/s), & Heat Fluxes (J/s/m2)"                                                                                                                                                                                                                                                                                                                                                                                                                                                                                                                                                                                                                                                                                                         
Variables= "X(m)"     "Y(m)"      "Z(m)"     "FluxLiq"   "FluxLiq_X"   "FluxLiq_Y"   "FluxLiq_Z"   "PorVelLiq"  "PorVelLiqX"  "PorVelLiqY"  "PorVelLiqZ"     "FluxGas"   "FluxGas_X"   "FluxGas_Y"   "FluxGas_Z"   "PorVelGas"  "PorVelGasX"  "PorVelGasY"  "PorVelGasZ"    "HeatFlux"  "HeatFlux_X"  "HeatFlux_Y"  "HeatFlux_Z"                                                                                                                                                                                                                                                                                                                                                                                                                                                                                                
Zone T= "1.00000000E+09 sec" I=     9 J=    10 K=    23 F=Point
  1.250000E+02  1.250000E+02 -5.425000E+03  5.544435E-10  6.201168E-11  1.363534E-15 -5.509648E-10  3.276522E-12  3.678152E-13  8.087555E-18 -3.255812E-12  0.000000E+00  0.000000E+00  0.000000E+00  0.000000E+00  0.000000E+00  0.000000E+00  0.000000E+00  0.000000E+00  6.670605E-02 -1.161383E-04  1.076959E-09  6.670595E-02                                                                                                                                                                                                                                                                                                                                                                                                                                                                                              
  3.750000E+02  1.250000E+02 -5.425000E+03  5.818858E-10  1.880051E-10 -1.831480E-15 -5.506770E-10  3.439947E-12  1.115160E-12 -1.086333E-17 -3.254174E-12  0.000000E+00  0.000000E+00  0.000000E+00  0.000000E+00  0.000000E+00  0.000000E+00  0.000000E+00  0.000000E+00  6.675429E-02 -4.554551E-04 -2.335445E-09  6.675274E-02                                                                                                                                                                                                                                                                                                                                                                                                                                                                                              
  6.250000E+02  1.250000E+02 -5.425000E+03  6.182158E-10  3.014191E-10  1.289638E-15 -5.397567E-10  3.656740E-12  1.788004E-12  7.649856E-18 -3.189795E-12  0.000000E+00  0.000000E+00  0.000000E+00  0.000000E+00  0.000000E+00  0.000000E+00  0.000000E+00  0.000000E+00  6.695078E-02 -1.256258E-03  2.202320E-09  6.693899E-02                                                                                                                                                                                                                                                                                                                                                                                                                                                                                              
  8.750000E+02  1.250000E+02 -5.425000E+03  5.476721E-10  2.839204E-10  3.204679E-16 -4.683310E-10  3.240189E-12  1.684395E-12  1.901202E-18 -2.767966E-12  0.000000E+00  0.000000E+00  0.000000E+00  0.000000E+00  0.000000E+00  0.000000E+00  0.000000E+00  0.000000E+00  6.780419E-02 -3.719389E-03 -1.402855E-10  6.770210E-02                                                                                                                                                                                                                                                                                                                                                                                                                                                                                              
  1.050000E+03  1.250000E+02 -5.425000E+03  1.832132E-10  2.553833E-15 -1.019689E-15 -1.832132E-10  1.082997E-12  1.515271E-17 -6.050902E-18 -1.082997E-12  0.000000E+00  0.000000E+00  0.000000E+00  0.000000E+00  0.000000E+00  0.000000E+00  0.000000E+00  0.000000E+00  7.015976E-02  1.074319E-09 -1.477446E-09  7.015976E-02                                                                                                                                                                                                                                                                                                                                                                                                                                                                                              
  1.225000E+03  1.250000E+02 -5.425000E+03  5.476692E-10 -2.839162E-10 -6.427725E-16 -4.683302E-10  3.240172E-12 -1.684370E-12 -3.813300E-18 -2.767961E-12  0.000000E+00  0.000000E+00  0.000000E+00  0.000000E+00  0.000000E+00  0.000000E+00  0.000000E+00  0.000000E+00  6.780419E-02  3.719389E-03 -1.418017E-09  6.770210E-02                                                                                                                                                                                                                                                                                                                                                                                                                                                                                              
  1.475000E+03  1.250000E+02 -5.425000E+03  6.182137E-10 -3.014168E-10 -1.297880E-16 -5.397556E-10  3.656728E-12 -1.787991E-12 -7.698751E-19 -3.189788E-12  0.000000E+00  0.000000E+00  0.000000E+00  0.000000E+00  0.000000E+00  0.000000E+00  0.000000E+00  0.000000E+00  6.695078E-02  1.256254E-03 -1.419268E-09  6.693899E-02                                                                                                                                                                                                                                                                                                                                                                                                                                                                                              
  1.725000E+03  1.250000E+02 -5.425000E+03  5.818800E-10 -1.880002E-10  1.940977E-16 -5.506726E-10  3.439912E-12 -1.115131E-12  1.151280E-18 -3.254148E-12  0.000000E+00  0.000000E+00  0.000000E+00  0.000000E+00  0.000000E+00  0.000000E+00  0.000000E+00  0.000000E+00  6.675429E-02  4.554563E-04 -1.452539E-09  6.675274E-02                                                                                                                                                                                                                                                                                                                                                                                                                                                                                              
  1.975000E+03  1.250000E+02 -5.425000E+03  5.544394E-10 -6.200733E-11  1.482054E-15 -5.509611E-10  3.276498E-12 -3.677894E-13  8.790536E-18 -3.255790E-12  0.000000E+00  0.000000E+00  0.000000E+00  0.000000E+00  0.000000E+00  0.000000E+00  0.000000E+00  0.000000E+00  6.670605E-02  1.161430E-04  2.530669E-11  6.670595E-02                                                                                                                                                                                                                                                                                                                                                                                                                                                                                              
  1.250000E+02  1.250000E+02 -5.225000E+03  1.887830E-09  1.685587E-11  2.642887E-15 -1.887755E-09  1.109393E-11  9.934031E-14  1.557576E-17 -1.109349E-11  0.000000E+00  0.000000E+00  0.000000E+00  0.000000E+00  0.000000E+00  0.000000E+00  0.000000E+00  0.000000E+00  1.438360E-01 -1.236394E-04  1.413364E-09  1.438359E-01                                                                                                                                                                                                                                                                                                                                                                                                                                                                                              
  3.750000E+02  1.250000E+02 -5.225000E+03  1.874232E-09  3.944251E-11  6.705302E-16 -1.873817E-09  1.101438E-11  2.324587E-13  3.951812E-18 -1.101192E-11  0.000000E+00  0.000000E+00  0.000000E+00  0.000000E+00  0.000000E+00  0.000000E+00  0.000000E+00  0.000000E+00  1.439566E-01 -4.243314E-04 -2.004592E-10  1.439560E-01                                                                                                                                                                                                                                                                                                                                                                                                                                                                                              
  6.250000E+02  1.250000E+02 -5.225000E+03  1.822341E-09  2.445670E-11  9.126275E-17 -1.822177E-09  1.070999E-11  1.441405E-13  5.378836E-19 -1.070902E-11  0.000000E+00  0.000000E+00  0.000000E+00  0.000000E+00  0.000000E+00  0.000000E+00  0.000000E+00  0.000000E+00  1.443439E-01 -8.322659E-04  1.754131E-10  1.443415E-01                                                                                                                                                                                                                                                                                                                                                                                                                                                                                              
  8.750000E+02  1.250000E+02 -5.225000E+03  1.660479E-09 -3.355235E-11  1.030409E-15 -1.660140E-09  9.758220E-12 -1.977671E-13  6.073404E-18 -9.756216E-12  0.000000E+00  0.000000E+00  0.000000E+00  0.000000E+00  0.000000E+00  0.000000E+00  0.000000E+00  0.000000E+00  1.455220E-01 -9.779329E-04  8.500084E-10  1.455187E-01                                                                                                                                                                                                                                                                                                                                                                                                                                                                                              
  1.050000E+03  1.250000E+02 -5.225000E+03  1.304056E-09  2.522032E-15  1.131696E-15 -1.304056E-09  7.655265E-12  1.486558E-17  6.670635E-18 -7.655265E-12  0.000000E+00  0.000000E+00  0.000000E+00  0.000000E+00  0.000000E+00  0.000000E+00  0.000000E+00  0.000000E+00  1.482832E-01 -3.102142E-09  1.421693E-09  1.482832E-01                                                                                                                                                                                                                                                                                                                                                                                                                                                                                              
  1.225000E+03  1.250000E+02 -5.225000E+03  1.660479E-09  3.355640E-11  2.479371E-16 -1.660140E-09  9.758221E-12  1.977909E-13  1.461383E-18 -9.756216E-12  0.000000E+00  0.000000E+00  0.000000E+00  0.000000E+00  0.000000E+00  0.000000E+00  0.000000E+00  0.000000E+00  1.455220E-01  9.779312E-04  1.185614E-09  1.455187E-01                                                                                                                                                                                                                                                                                                                                                                                                                                                                                              
  1.475000E+03  1.250000E+02 -5.225000E+03  1.822341E-09 -2.445336E-11 -2.367537E-15 -1.822177E-09  1.070999E-11 -1.441209E-13 -1.395377E-17 -1.070902E-11  0.000000E+00  0.000000E+00  0.000000E+00  0.000000E+00  0.000000E+00  0.000000E+00  0.000000E+00  0.000000E+00  1.443439E-01  8.322631E-04 -2.419429E-09  1.443415E-01                                                                                                                                                                                                                                                                                                                                                                                                                                                                                              
  1.725000E+03  1.250000E+02 -5.225000E+03  1.874225E-09 -3.943697E-11 -7.545126E-16 -1.873810E-09  1.101434E-11 -2.324261E-13 -4.446767E-18 -1.101188E-11  0.000000E+00  0.000000E+00  0.000000E+00  0.000000E+00  0.000000E+00  0.000000E+00  0.000000E+00  0.000000E+00  1.439566E-01  4.243303E-04  4.015183E-10  1.439560E-01                                                                                                                                                                                                                                                                                                                                                                                                                                                                                              
  1.975000E+03  1.250000E+02 -5.225000E+03  1.887827E-09 -1.685215E-11 -6.476354E-16 -1.887752E-09  1.109392E-11 -9.931838E-14 -3.816816E-18 -1.109347E-11  0.000000E+00  0.000000E+00  0.000000E+00  0.000000E+00  0.000000E+00  0.000000E+00  0.000000E+00  0.000000E+00  1.438360E-01  1.236424E-04 -1.470794E-09  1.438359E-01                                                                                                                                                                                                                                                                                                                                                                                                                                                                                              
  1.250000E+02  1.250000E+02 -4.975000E+03  3.219238E-09 -6.794318E-12  2.421199E-15 -3.219231E-09  1.877113E-11 -3.967882E-14  1.413974E-17 -1.877109E-11  0.000000E+00  0.000000E+00  0.000000E+00  0.000000E+00  0.000000E+00  0.000000E+00  0.000000E+00  0.000000E+00  1.623848E-01 -8.534208E-05  2.587762E-09  1.623848E-01                                                                                                                                                                                                                                                                                                                                                                                                                                                                                              
  3.750000E+02  1.250000E+02 -4.975000E+03  3.185255E-09 -2.546288E-11  2.594772E-16 -3.185153E-09  1.857318E-11 -1.487048E-13  1.515354E-18 -1.857258E-11  0.000000E+00  0.000000E+00  0.000000E+00  0.000000E+00  0.000000E+00  0.000000E+00  0.000000E+00  0.000000E+00  1.625178E-01 -2.630356E-04  1.259379E-09  1.625176E-01                                                                                                                                                                                                                                                                                                                                                                                                                                                                                              
  6.250000E+02  1.250000E+02 -4.975000E+03  3.100270E-09 -5.052816E-11 -8.422335E-16 -3.099858E-09  1.807770E-11 -2.950924E-13 -4.918759E-18 -1.807529E-11  0.000000E+00  0.000000E+00  0.000000E+00  0.000000E+00  0.000000E+00  0.000000E+00  0.000000E+00  0.000000E+00  1.628476E-01 -4.099010E-04 -8.432430E-11  1.628471E-01                                                                                                                                                                                                                                                                                                                                                                                                                                                                                              
  8.750000E+02  1.250000E+02 -4.975000E+03  2.947629E-09 -4.625410E-11  4.072193E-16 -2.947266E-09  1.718661E-11 -2.701346E-13  2.378273E-18 -1.718449E-11  0.000000E+00  0.000000E+00  0.000000E+00  0.000000E+00  0.000000E+00  0.000000E+00  0.000000E+00  0.000000E+00  1.634445E-01 -3.131087E-04  1.394757E-09  1.634442E-01                                                                                                                                                                                                                                                                                                                                                                                                                                                                                              
  1.050000E+03  1.250000E+02 -4.975000E+03  2.859585E-09 -2.330190E-16  1.398897E-15 -2.859585E-09  1.667146E-11 -1.360888E-18  8.169985E-18 -1.667146E-11  0.000000E+00  0.000000E+00  0.000000E+00  0.000000E+00  0.000000E+00  0.000000E+00  0.000000E+00  0.000000E+00  1.638015E-01 -3.256524E-09  1.223656E-09  1.638015E-01                                                                                                                                                                                                                                                                                                                                                                                                                                                                                              
  1.225000E+03  1.250000E+02 -4.975000E+03  2.947629E-09  4.625472E-11  1.821406E-15 -2.947266E-09  1.718661E-11  2.701382E-13  1.063751E-17 -1.718449E-11  0.000000E+00  0.000000E+00  0.000000E+00  0.000000E+00  0.000000E+00  0.000000E+00  0.000000E+00  0.000000E+00  1.634445E-01  3.131043E-04  1.610870E-09  1.634442E-01                                                                                                                                                                                                                                                                                                                                                                                                                                                                                              
  1.475000E+03  1.250000E+02 -4.975000E+03  3.100268E-09  5.053197E-11  7.875467E-16 -3.099857E-09  1.807769E-11  2.951147E-13  4.599380E-18 -1.807529E-11  0.000000E+00  0.000000E+00  0.000000E+00  0.000000E+00  0.000000E+00  0.000000E+00  0.000000E+00  0.000000E+00  1.628476E-01  4.098958E-04 -6.639887E-10  1.628471E-01                                                                                                                                                                                                                                                                                                                                                                                                                                                                                              
  1.725000E+03  1.250000E+02 -4.975000E+03  3.185251E-09  2.546585E-11  4.461033E-16 -3.185149E-09  1.857315E-11  1.487221E-13  2.605256E-18 -1.857256E-11  0.000000E+00  0.000000E+00  0.000000E+00  0.000000E+00  0.000000E+00  0.000000E+00  0.000000E+00  0.000000E+00  1.625178E-01  2.630292E-04 -2.240547E-10  1.625176E-01                                                                                                                                                                                                                                                                                                                                                                                                                                                                                              
  1.975000E+03  1.250000E+02 -4.975000E+03  3.219237E-09  6.794334E-12  1.310775E-15 -3.219229E-09  1.877112E-11  3.967891E-14  7.654895E-18 -1.877108E-11  0.000000E+00  0.000000E+00  0.000000E+00  0.000000E+00  0.000000E+00  0.000000E+00  0.000000E+00  0.000000E+00  1.623848E-01  8.533970E-05  1.892054E-09  1.623848E-01                                                                                                                                                                                                                                                                                                                                                                                                                                                                                              
  1.250000E+02  1.250000E+02 -4.725000E+03  4.079676E-09 -4.840473E-12 -3.930424E-16 -4.079673E-09  2.359042E-11 -2.799272E-14 -2.272981E-18 -2.359040E-11  0.000000E+00  0.000000E+00  0.000000E+00  0.000000E+00  0.000000E+00  0.000000E+00  0.000000E+00  0.000000E+00  1.759891E-01 -4.185780E-05  7.455478E-10  1.759891E-01                                                                                                                                                                                                                                                                                                                                                                                                                                                                                              
  3.750000E+02  1.250000E+02 -4.725000E+03  4.037051E-09 -1.523203E-11 -3.670405E-16 -4.037023E-09  2.334403E-11 -8.808802E-14 -2.122620E-18 -2.334386E-11  0.000000E+00  0.000000E+00  0.000000E+00  0.000000E+00  0.000000E+00  0.000000E+00  0.000000E+00  0.000000E+00  1.760897E-01 -1.206716E-04 -2.740086E-10  1.760897E-01                                                                                                                                                                                                                                                                                                                                                                                                                                                                                              
  6.250000E+02  1.250000E+02 -4.725000E+03  3.948882E-09 -2.376254E-11 -2.395568E-16 -3.948810E-09  2.283422E-11 -1.374215E-13 -1.385384E-18 -2.283381E-11  0.000000E+00  0.000000E+00  0.000000E+00  0.000000E+00  0.000000E+00  0.000000E+00  0.000000E+00  0.000000E+00  1.763001E-01 -1.650969E-04  2.459975E-10  1.763001E-01                                                                                                                                                                                                                                                                                                                                                                                                                                                                                              
  8.750000E+02  1.250000E+02 -4.725000E+03  3.836331E-09 -1.697590E-11  5.323323E-16 -3.836293E-09  2.218315E-11 -9.817404E-14  3.078563E-18 -2.218294E-11  0.000000E+00  0.000000E+00  0.000000E+00  0.000000E+00  0.000000E+00  0.000000E+00  0.000000E+00  0.000000E+00  1.765759E-01 -1.060808E-04  8.816269E-10  1.765759E-01                                                                                                                                                                                                                                                                                                                                                                                                                                                                                              
  1.050000E+03  1.250000E+02 -4.725000E+03  3.810961E-09  6.471666E-16  3.130493E-16 -3.810961E-09  2.203625E-11  3.742673E-18  1.810417E-18 -2.203625E-11  0.000000E+00  0.000000E+00  0.000000E+00  0.000000E+00  0.000000E+00  0.000000E+00  0.000000E+00  0.000000E+00  1.766423E-01 -2.140661E-09 -3.972408E-10  1.766423E-01                                                                                                                                                                                                                                                                                                                                                                                                                                                                                              
  1.225000E+03  1.250000E+02 -4.725000E+03  3.836329E-09  1.697760E-11  8.792439E-16 -3.836292E-09  2.218315E-11  9.818385E-14  5.084808E-18 -2.218293E-11  0.000000E+00  0.000000E+00  0.000000E+00  0.000000E+00  0.000000E+00  0.000000E+00  0.000000E+00  0.000000E+00  1.765759E-01  1.060754E-04 -1.931992E-10  1.765759E-01                                                                                                                                                                                                                                                                                                                                                                                                                                                                                              
  1.475000E+03  1.250000E+02 -4.725000E+03  3.948879E-09  2.376368E-11  5.767039E-17 -3.948808E-09  2.283421E-11  1.374281E-13  3.335143E-19 -2.283379E-11  0.000000E+00  0.000000E+00  0.000000E+00  0.000000E+00  0.000000E+00  0.000000E+00  0.000000E+00  0.000000E+00  1.763001E-01  1.650875E-04 -9.094163E-10  1.763001E-01                                                                                                                                                                                                                                                                                                                                                                                                                                                                                              
  1.725000E+03  1.250000E+02 -4.725000E+03  4.037047E-09  1.523218E-11  6.713379E-17 -4.037019E-09  2.334400E-11  8.808888E-14  3.882392E-19 -2.334384E-11  0.000000E+00  0.000000E+00  0.000000E+00  0.000000E+00  0.000000E+00  0.000000E+00  0.000000E+00  0.000000E+00  1.760897E-01  1.206621E-04  2.027982E-10  1.760897E-01                                                                                                                                                                                                                                                                                                                                                                                                                                                                                              