Title="TOUGHREACT V3.30-OMP flowvector.tec: Liq & Gas Fluxes (kg/s/m^2), Pore Velocities (m/s), & Heat Fluxes (J/s/m2)"                                                                                                                                                                                                                                                                                                                                                                                                                                                                                                                                                                                                                                                                                                         
Variables= "X(m)"     "Y(m)"      "Z(m)"     "FluxLiq"   "FluxLiq_X"   "FluxLiq_Y"   "FluxLiq_Z"   "PorVelLiq"  "PorVelLiqX"  "PorVelLiqY"  "PorVelLiqZ"     "FluxGas"   "FluxGas_X"   "FluxGas_Y"   "FluxGas_Z"   "PorVelGas"  "PorVelGasX"  "PorVelGasY"  "PorVelGasZ"    "HeatFlux"  "HeatFlux_X"  "HeatFlux_Y"  "HeatFlux_Z"                                                                                                                                                                                                                                                                                                                                                                                                                                                                                                
Zone T= "1.00000000E+11 sec" I=     9 J=    10 K=    23 F=Point
  1.250000E+02  1.250000E+02 -5.425000E+03  4.758279E-10  7.763033E-11  1.624660E-15 -4.694525E-10  2.802011E-12  4.587400E-13  9.600456E-18 -2.764204E-12  0.000000E+00  0.000000E+00  0.000000E+00  0.000000E+00  0.000000E+00  0.000000E+00  0.000000E+00  0.000000E+00  6.482021E-02 -1.438986E-04  7.692767E-10  6.482005E-02                                                                                                                                                                                                                                                                                                                                                                                                                                                                                              
  3.750000E+02  1.250000E+02 -5.425000E+03  5.170929E-10  2.259608E-10  1.054794E-15 -4.651094E-10  3.046884E-12  1.335307E-12  6.233163E-18 -2.738697E-12  0.000000E+00  0.000000E+00  0.000000E+00  0.000000E+00  0.000000E+00  0.000000E+00  0.000000E+00  0.000000E+00  6.487584E-02 -5.254737E-04 -8.761137E-10  6.487371E-02                                                                                                                                                                                                                                                                                                                                                                                                                                                                                              
  6.250000E+02  1.250000E+02 -5.425000E+03  5.625366E-10  3.397758E-10 -2.778585E-15 -4.483300E-10  3.316930E-12  2.008039E-12 -1.642072E-17 -2.640039E-12  0.000000E+00  0.000000E+00  0.000000E+00  0.000000E+00  0.000000E+00  0.000000E+00  0.000000E+00  0.000000E+00  6.508359E-02 -1.334304E-03 -3.965958E-09  6.506991E-02                                                                                                                                                                                                                                                                                                                                                                                                                                                                                              
  8.750000E+02  1.250000E+02 -5.425000E+03  4.797961E-10  3.012745E-10 -2.676779E-15 -3.734140E-10  2.829668E-12  1.780706E-12 -1.582125E-17 -2.199116E-12  0.000000E+00  0.000000E+00  0.000000E+00  0.000000E+00  0.000000E+00  0.000000E+00  0.000000E+00  0.000000E+00  6.594655E-02 -3.763995E-03 -2.888346E-09  6.583904E-02                                                                                                                                                                                                                                                                                                                                                                                                                                                                                              
  1.050000E+03  1.250000E+02 -5.425000E+03  9.317541E-11  5.916865E-16 -5.583514E-16 -9.317541E-11  5.488086E-13  3.497520E-18 -3.300982E-18 -5.488086E-13  0.000000E+00  0.000000E+00  0.000000E+00  0.000000E+00  0.000000E+00  0.000000E+00  0.000000E+00  0.000000E+00  6.828897E-02 -3.880886E-09  8.971953E-10  6.828897E-02                                                                                                                                                                                                                                                                                                                                                                                                                                                                                              
  1.225000E+03  1.250000E+02 -5.425000E+03  4.797927E-10 -3.012708E-10  7.967728E-16 -3.734126E-10  2.829648E-12 -1.780684E-12  4.709371E-18 -2.199108E-12  0.000000E+00  0.000000E+00  0.000000E+00  0.000000E+00  0.000000E+00  0.000000E+00  0.000000E+00  0.000000E+00  6.594655E-02  3.763992E-03  1.858536E-09  6.583904E-02                                                                                                                                                                                                                                                                                                                                                                                                                                                                                              
  1.475000E+03  1.250000E+02 -5.425000E+03  5.625301E-10 -3.397676E-10 -1.729960E-15 -4.483281E-10  3.316892E-12 -2.007991E-12 -1.022362E-17 -2.640027E-12  0.000000E+00  0.000000E+00  0.000000E+00  0.000000E+00  0.000000E+00  0.000000E+00  0.000000E+00  0.000000E+00  6.508359E-02  1.334308E-03 -6.617881E-10  6.506991E-02                                                                                                                                                                                                                                                                                                                                                                                                                                                                                              
  1.725000E+03  1.250000E+02 -5.425000E+03  5.170921E-10 -2.259557E-10  1.575065E-16 -4.651110E-10  3.046879E-12 -1.335277E-12  9.307634E-19 -2.738706E-12  0.000000E+00  0.000000E+00  0.000000E+00  0.000000E+00  0.000000E+00  0.000000E+00  0.000000E+00  0.000000E+00  6.487584E-02  5.254750E-04  5.319373E-10  6.487371E-02                                                                                                                                                                                                                                                                                                                                                                                                                                                                                              
  1.975000E+03  1.250000E+02 -5.425000E+03  4.758305E-10 -7.763041E-11  1.698093E-15 -4.694552E-10  2.802026E-12 -4.587405E-13  1.003438E-17 -2.764219E-12  0.000000E+00  0.000000E+00  0.000000E+00  0.000000E+00  0.000000E+00  0.000000E+00  0.000000E+00  0.000000E+00  6.482020E-02  1.438963E-04  4.052068E-09  6.482005E-02                                                                                                                                                                                                                                                                                                                                                                                                                                                                                              
  1.250000E+02  1.250000E+02 -5.225000E+03  1.631495E-09  2.511377E-11  1.326993E-15 -1.631302E-09  9.556165E-12  1.474987E-13  7.793631E-18 -9.555026E-12  0.000000E+00  0.000000E+00  0.000000E+00  0.000000E+00  0.000000E+00  0.000000E+00  0.000000E+00  0.000000E+00  1.374287E-01 -1.556717E-04 -1.657448E-10  1.374286E-01                                                                                                                                                                                                                                                                                                                                                                                                                                                                                              
  3.750000E+02  1.250000E+02 -5.225000E+03  1.607996E-09  5.990451E-11 -3.578502E-16 -1.606880E-09  9.418849E-12  3.518391E-13 -2.101754E-18 -9.412276E-12  0.000000E+00  0.000000E+00  0.000000E+00  0.000000E+00  0.000000E+00  0.000000E+00  0.000000E+00  0.000000E+00  1.375694E-01 -5.037083E-04 -1.289189E-09  1.375685E-01                                                                                                                                                                                                                                                                                                                                                                                                                                                                                              
  6.250000E+02  1.250000E+02 -5.225000E+03  1.540896E-09  4.654644E-11  1.570906E-15 -1.540193E-09  9.026276E-12  2.733905E-13  9.226788E-18 -9.022134E-12  0.000000E+00  0.000000E+00  0.000000E+00  0.000000E+00  0.000000E+00  0.000000E+00  0.000000E+00  0.000000E+00  1.379857E-01 -9.164006E-04  1.216496E-09  1.379827E-01                                                                                                                                                                                                                                                                                                                                                                                                                                                                                              
  8.750000E+02  1.250000E+02 -5.225000E+03  1.368599E-09 -2.120770E-11 -6.971805E-16 -1.368434E-09  8.016402E-12 -1.245785E-13 -4.095201E-18 -8.015434E-12  0.000000E+00  0.000000E+00  0.000000E+00  0.000000E+00  0.000000E+00  0.000000E+00  0.000000E+00  0.000000E+00  1.391828E-01 -1.020147E-03 -4.051182E-10  1.391790E-01                                                                                                                                                                                                                                                                                                                                                                                                                                                                                              
  1.050000E+03  1.250000E+02 -5.225000E+03  1.017525E-09  8.077940E-16 -6.511500E-16 -1.017525E-09  5.952141E-12  4.745062E-18 -3.824954E-18 -5.952141E-12  0.000000E+00  0.000000E+00  0.000000E+00  0.000000E+00  0.000000E+00  0.000000E+00  0.000000E+00  0.000000E+00  1.419358E-01 -4.433380E-09 -9.590006E-11  1.419358E-01                                                                                                                                                                                                                                                                                                                                                                                                                                                                                              
  1.225000E+03  1.250000E+02 -5.225000E+03  1.368597E-09  2.121135E-11  6.926047E-16 -1.368433E-09  8.016395E-12  1.246000E-13  4.068323E-18 -8.015427E-12  0.000000E+00  0.000000E+00  0.000000E+00  0.000000E+00  0.000000E+00  0.000000E+00  0.000000E+00  0.000000E+00  1.391828E-01  1.020143E-03  1.808649E-09  1.391790E-01                                                                                                                                                                                                                                                                                                                                                                                                                                                                                              
  1.475000E+03  1.250000E+02 -5.225000E+03  1.540894E-09 -4.654174E-11  8.820155E-16 -1.540191E-09  9.026264E-12 -2.733629E-13  5.180557E-18 -9.022123E-12  0.000000E+00  0.000000E+00  0.000000E+00  0.000000E+00  0.000000E+00  0.000000E+00  0.000000E+00  0.000000E+00  1.379857E-01  9.164012E-04  9.923436E-10  1.379827E-01                                                                                                                                                                                                                                                                                                                                                                                                                                                                                              
  1.725000E+03  1.250000E+02 -5.225000E+03  1.607998E-09 -5.990420E-11 -4.425407E-16 -1.606882E-09  9.418863E-12 -3.518373E-13 -2.599165E-18 -9.412289E-12  0.000000E+00  0.000000E+00  0.000000E+00  0.000000E+00  0.000000E+00  0.000000E+00  0.000000E+00  0.000000E+00  1.375694E-01  5.037051E-04  7.372412E-10  1.375684E-01                                                                                                                                                                                                                                                                                                                                                                                                                                                                                              
  1.975000E+03  1.250000E+02 -5.225000E+03  1.631496E-09 -2.511532E-11  1.882654E-15 -1.631303E-09  9.556173E-12 -1.475078E-13  1.105712E-17 -9.555034E-12  0.000000E+00  0.000000E+00  0.000000E+00  0.000000E+00  0.000000E+00  0.000000E+00  0.000000E+00  0.000000E+00  1.374287E-01  1.556681E-04  3.162501E-09  1.374286E-01                                                                                                                                                                                                                                                                                                                                                                                                                                                                                              
  1.250000E+02  1.250000E+02 -4.975000E+03  2.895598E-09 -3.536748E-12 -4.651022E-16 -2.895596E-09  1.683652E-11 -2.059724E-14 -2.708636E-18 -1.683651E-11  0.000000E+00  0.000000E+00  0.000000E+00  0.000000E+00  0.000000E+00  0.000000E+00  0.000000E+00  0.000000E+00  1.521035E-01 -1.146868E-04 -1.601468E-09  1.521034E-01                                                                                                                                                                                                                                                                                                                                                                                                                                                                                              
  3.750000E+02  1.250000E+02 -4.975000E+03  2.848587E-09 -1.724658E-11 -1.049147E-15 -2.848535E-09  1.656333E-11 -1.004418E-13 -6.110039E-18 -1.656303E-11  0.000000E+00  0.000000E+00  0.000000E+00  0.000000E+00  0.000000E+00  0.000000E+00  0.000000E+00  0.000000E+00  1.522640E-01 -3.355243E-04 -1.045372E-09  1.522636E-01                                                                                                                                                                                                                                                                                                                                                                                                                                                                                              
  6.250000E+02  1.250000E+02 -4.975000E+03  2.744882E-09 -4.135423E-11 -1.838535E-16 -2.744570E-09  1.596031E-11 -2.408465E-13 -1.070755E-18 -1.595849E-11  0.000000E+00  0.000000E+00  0.000000E+00  0.000000E+00  0.000000E+00  0.000000E+00  0.000000E+00  0.000000E+00  1.526338E-01 -4.865117E-04 -1.025863E-09  1.526330E-01                                                                                                                                                                                                                                                                                                                                                                                                                                                                                              
  8.750000E+02  1.250000E+02 -4.975000E+03  2.579029E-09 -4.112802E-11 -1.117617E-15 -2.578701E-09  1.499485E-11 -2.395324E-13 -6.509133E-18 -1.499293E-11  0.000000E+00  0.000000E+00  0.000000E+00  0.000000E+00  0.000000E+00  0.000000E+00  0.000000E+00  0.000000E+00  1.532598E-01 -3.522951E-04 -1.062513E-09  1.532594E-01                                                                                                                                                                                                                                                                                                                                                                                                                                                                                              
  1.050000E+03  1.250000E+02 -4.975000E+03  2.490580E-09 -8.526771E-16 -5.878577E-17 -2.490580E-09  1.447886E-11 -4.966096E-18 -3.423774E-19 -1.447886E-11  0.000000E+00  0.000000E+00  0.000000E+00  0.000000E+00  0.000000E+00  0.000000E+00  0.000000E+00  0.000000E+00  1.536186E-01 -4.127858E-09  5.187609E-10  1.536186E-01                                                                                                                                                                                                                                                                                                                                                                                                                                                                                              
  1.225000E+03  1.250000E+02 -4.975000E+03  2.579026E-09  4.112890E-11  5.366627E-16 -2.578698E-09  1.499483E-11  2.395375E-13  3.125587E-18 -1.499291E-11  0.000000E+00  0.000000E+00  0.000000E+00  0.000000E+00  0.000000E+00  0.000000E+00  0.000000E+00  0.000000E+00  1.532598E-01  3.522883E-04  1.306122E-09  1.532594E-01                                                                                                                                                                                                                                                                                                                                                                                                                                                                                              
  1.475000E+03  1.250000E+02 -4.975000E+03  2.744879E-09  4.135682E-11  1.254830E-15 -2.744568E-09  1.596030E-11  2.408616E-13  7.308079E-18 -1.595848E-11  0.000000E+00  0.000000E+00  0.000000E+00  0.000000E+00  0.000000E+00  0.000000E+00  0.000000E+00  0.000000E+00  1.526338E-01  4.865093E-04  2.808165E-09  1.526330E-01                                                                                                                                                                                                                                                                                                                                                                                                                                                                                              
  1.725000E+03  1.250000E+02 -4.975000E+03  2.848586E-09  1.724742E-11  2.070762E-16 -2.848534E-09  1.656333E-11  1.004466E-13  1.205974E-18 -1.656302E-11  0.000000E+00  0.000000E+00  0.000000E+00  0.000000E+00  0.000000E+00  0.000000E+00  0.000000E+00  0.000000E+00  1.522640E-01  3.355233E-04  6.893182E-10  1.522636E-01                                                                                                                                                                                                                                                                                                                                                                                                                                                                                              
  1.975000E+03  1.250000E+02 -4.975000E+03  2.895596E-09  3.536719E-12 -1.096722E-16 -2.895594E-09  1.683651E-11  2.059707E-14 -6.387030E-19 -1.683650E-11  0.000000E+00  0.000000E+00  0.000000E+00  0.000000E+00  0.000000E+00  0.000000E+00  0.000000E+00  0.000000E+00  1.521035E-01  1.146855E-04  2.078871E-10  1.521034E-01                                                                                                                                                                                                                                                                                                                                                                                                                                                                                              
  1.250000E+02  1.250000E+02 -4.725000E+03  3.922877E-09 -3.658129E-12 -1.500025E-16 -3.922875E-09  2.263379E-11 -2.111272E-14 -8.657295E-19 -2.263378E-11  0.000000E+00  0.000000E+00  0.000000E+00  0.000000E+00  0.000000E+00  0.000000E+00  0.000000E+00  0.000000E+00  1.646185E-01 -6.422964E-05 -3.401878E-10  1.646184E-01                                                                                                                                                                                                                                                                                                                                                                                                                                                                                              
  3.750000E+02  1.250000E+02 -4.725000E+03  3.867433E-09 -1.224596E-11 -1.867353E-16 -3.867414E-09  2.231396E-11 -7.067745E-14 -1.077738E-18 -2.231384E-11  0.000000E+00  0.000000E+00  0.000000E+00  0.000000E+00  0.000000E+00  0.000000E+00  0.000000E+00  0.000000E+00  1.647470E-01 -1.760102E-04 -1.240220E-09  1.647469E-01                                                                                                                                                                                                                                                                                                                                                                                                                                                                                              
  6.250000E+02  1.250000E+02 -4.725000E+03  3.760685E-09 -2.045233E-11  3.358888E-16 -3.760629E-09  2.169803E-11 -1.180415E-13  1.938595E-18 -2.169771E-11  0.000000E+00  0.000000E+00  0.000000E+00  0.000000E+00  0.000000E+00  0.000000E+00  0.000000E+00  0.000000E+00  1.649982E-01 -2.238533E-04 -2.303946E-10  1.649980E-01                                                                                                                                                                                                                                                                                                                                                                                                                                                                                              
  8.750000E+02  1.250000E+02 -4.725000E+03  3.634186E-09 -1.518059E-11 -5.413001E-16 -3.634154E-09  2.096786E-11 -8.761599E-14 -3.124170E-18 -2.096768E-11  0.000000E+00  0.000000E+00  0.000000E+00  0.000000E+00  0.000000E+00  0.000000E+00  0.000000E+00  0.000000E+00  1.653051E-01 -1.364298E-04 -1.536125E-09  1.653050E-01                                                                                                                                                                                                                                                                                                                                                                                                                                                                                              
  1.050000E+03  1.250000E+02 -4.725000E+03  3.607265E-09  2.370512E-15 -2.773952E-16 -3.607265E-09  2.081234E-11  1.368168E-17 -1.601018E-18 -2.081234E-11  0.000000E+00  0.000000E+00  0.000000E+00  0.000000E+00  0.000000E+00  0.000000E+00  0.000000E+00  0.000000E+00  1.653751E-01 -3.817951E-09 -8.823662E-10  1.653751E-01                                                                                                                                                                                                                                                                                                                                                                                                                                                                                              
  1.225000E+03  1.250000E+02 -4.725000E+03  3.634184E-09  1.518274E-11  2.978946E-16 -3.634153E-09  2.096786E-11  8.762841E-14  1.719330E-18 -2.096767E-11  0.000000E+00  0.000000E+00  0.000000E+00  0.000000E+00  0.000000E+00  0.000000E+00  0.000000E+00  0.000000E+00  1.653051E-01  1.364247E-04  7.272052E-10  1.653050E-01                                                                                                                                                                                                                                                                                                                                                                                                                                                                                              
  1.475000E+03  1.250000E+02 -4.725000E+03  3.760684E-09  2.045173E-11 -4.563407E-16 -3.760628E-09  2.169802E-11  1.180380E-13 -2.633788E-18 -2.169770E-11  0.000000E+00  0.000000E+00  0.000000E+00  0.000000E+00  0.000000E+00  0.000000E+00  0.000000E+00  0.000000E+00  1.649982E-01  2.238494E-04  5.861434E-11  1.649980E-01                                                                                                                                                                                                                                                                                                                                                                                                                                                                                              
  1.725000E+03  1.250000E+02 -4.725000E+03  3.867431E-09  1.224468E-11  7.319666E-16 -3.867411E-09  2.231394E-11  7.067004E-14  4.224525E-18 -2.231383E-11  0.000000E+00  0.000000E+00  0.000000E+00  0.000000E+00  0.000000E+00  0.000000E+00  0.000000E+00  0.000000E+00  1.647470E-01  1.760068E-04  8.872245E-10  1.647469E-01                                                                                                                                                                                                                                                                                                                                                                                                                                                                                              