Title="TOUGHREACT V3.30-OMP flowvector.tec: Liq & Gas Fluxes (kg/s/m^2), Pore Velocities (m/s), & Heat Fluxes (J/s/m2)"                                                                                                                                                                                                                                                                                                                                                                                                                                                                                                                                                                                                                                                                                                         
Variables= "X(m)"     "Y(m)"      "Z(m)"     "FluxLiq"   "FluxLiq_X"   "FluxLiq_Y"   "FluxLiq_Z"   "PorVelLiq"  "PorVelLiqX"  "PorVelLiqY"  "PorVelLiqZ"     "FluxGas"   "FluxGas_X"   "FluxGas_Y"   "FluxGas_Z"   "PorVelGas"  "PorVelGasX"  "PorVelGasY"  "PorVelGasZ"    "HeatFlux"  "HeatFlux_X"  "HeatFlux_Y"  "HeatFlux_Z"                                                                                                                                                                                                                                                                                                                                                                                                                                                                                                
Zone T= "1.00000000E+10 sec" I=     9 J=    10 K=    23 F=Point
  1.250000E+02  1.250000E+02 -5.425000E+03  5.934150E-09  1.172723E-09  2.264630E-09 -5.358200E-09  3.417662E-11  6.780362E-12  1.309346E-11 -3.083227E-11  0.000000E+00  0.000000E+00  0.000000E+00  0.000000E+00  0.000000E+00  0.000000E+00  0.000000E+00  0.000000E+00  8.476195E-02  1.192203E-03  2.309509E-03  8.472209E-02                                                                                                                                                                                                                                                                                                                                                                                                                                                                                              
  3.750000E+02  1.250000E+02 -5.425000E+03  6.277914E-09  2.893425E-09  2.355910E-09 -5.048761E-09  3.618557E-11  1.672904E-11  1.362124E-11 -2.905161E-11  0.000000E+00  0.000000E+00  0.000000E+00  0.000000E+00  0.000000E+00  0.000000E+00  0.000000E+00  0.000000E+00  8.523587E-02  2.902579E-03  2.408729E-03  8.515237E-02                                                                                                                                                                                                                                                                                                                                                                                                                                                                                              
  6.250000E+02  1.250000E+02 -5.425000E+03  6.057005E-09  3.082729E-09  2.482661E-09 -4.584811E-09  3.492476E-11  1.782381E-11  1.435420E-11 -2.638195E-11  0.000000E+00  0.000000E+00  0.000000E+00  0.000000E+00  0.000000E+00  0.000000E+00  0.000000E+00  0.000000E+00  8.588531E-02  2.708440E-03  2.540984E-03  8.580497E-02                                                                                                                                                                                                                                                                                                                                                                                                                                                                                              
  8.750000E+02  1.250000E+02 -5.425000E+03  5.181722E-09  1.665904E-09  2.576958E-09 -4.175439E-09  2.986788E-11  9.632383E-12  1.490015E-11 -2.402692E-11  0.000000E+00  0.000000E+00  0.000000E+00  0.000000E+00  0.000000E+00  0.000000E+00  0.000000E+00  0.000000E+00  8.681094E-02 -1.349246E-03  2.637267E-03  8.676038E-02                                                                                                                                                                                                                                                                                                                                                                                                                                                                                              
  1.050000E+03  1.250000E+02 -5.425000E+03  4.650254E-09 -1.985727E-15  2.589771E-09 -3.862376E-09  2.680343E-11 -1.148338E-17  1.497763E-11 -2.222823E-11  0.000000E+00  0.000000E+00  0.000000E+00  0.000000E+00  0.000000E+00  0.000000E+00  0.000000E+00  0.000000E+00  8.921687E-02 -8.340235E-09  2.652402E-03  8.917743E-02                                                                                                                                                                                                                                                                                                                                                                                                                                                                                              
  1.225000E+03  1.250000E+02 -5.425000E+03  5.181737E-09 -1.665932E-09  2.576957E-09 -4.175448E-09  2.986797E-11 -9.632546E-12  1.490014E-11 -2.402697E-11  0.000000E+00  0.000000E+00  0.000000E+00  0.000000E+00  0.000000E+00  0.000000E+00  0.000000E+00  0.000000E+00  8.681093E-02  1.349220E-03  2.637266E-03  8.676037E-02                                                                                                                                                                                                                                                                                                                                                                                                                                                                                              
  1.475000E+03  1.250000E+02 -5.425000E+03  6.057026E-09 -3.082765E-09  2.482679E-09 -4.584803E-09  3.492488E-11 -1.782403E-11  1.435431E-11 -2.638190E-11  0.000000E+00  0.000000E+00  0.000000E+00  0.000000E+00  0.000000E+00  0.000000E+00  0.000000E+00  0.000000E+00  8.588532E-02 -2.708468E-03  2.540993E-03  8.580498E-02                                                                                                                                                                                                                                                                                                                                                                                                                                                                                              
  1.725000E+03  1.250000E+02 -5.425000E+03  6.277930E-09 -2.893456E-09  2.355920E-09 -5.048758E-09  3.618566E-11 -1.672922E-11  1.362131E-11 -2.905159E-11  0.000000E+00  0.000000E+00  0.000000E+00  0.000000E+00  0.000000E+00  0.000000E+00  0.000000E+00  0.000000E+00  8.523587E-02 -2.902613E-03  2.408731E-03  8.515238E-02                                                                                                                                                                                                                                                                                                                                                                                                                                                                                              
  1.975000E+03  1.250000E+02 -5.425000E+03  5.934182E-09 -1.172743E-09  2.264643E-09 -5.358226E-09  3.417680E-11 -6.780482E-12  1.309354E-11 -3.083242E-11  0.000000E+00  0.000000E+00  0.000000E+00  0.000000E+00  0.000000E+00  0.000000E+00  0.000000E+00  0.000000E+00  8.476193E-02 -1.192227E-03  2.309525E-03  8.472207E-02                                                                                                                                                                                                                                                                                                                                                                                                                                                                                              
  1.250000E+02  1.250000E+02 -5.225000E+03  2.139878E-08  1.414953E-09  2.445280E-09 -2.121147E-08  1.219479E-10  8.111257E-12  1.401758E-11 -1.208677E-10  0.000000E+00  0.000000E+00  0.000000E+00  0.000000E+00  0.000000E+00  0.000000E+00  0.000000E+00  0.000000E+00  2.250299E-01  1.493532E-03  2.567251E-03  2.250103E-01                                                                                                                                                                                                                                                                                                                                                                                                                                                                                              
  3.750000E+02  1.250000E+02 -5.225000E+03  2.052387E-08  3.489507E-09  2.586756E-09 -2.005895E-08  1.169741E-10  2.000358E-11  1.482842E-11 -1.142931E-10  0.000000E+00  0.000000E+00  0.000000E+00  0.000000E+00  0.000000E+00  0.000000E+00  0.000000E+00  0.000000E+00  2.274162E-01  3.653756E-03  2.759264E-03  2.273701E-01                                                                                                                                                                                                                                                                                                                                                                                                                                                                                              
  6.250000E+02  1.250000E+02 -5.225000E+03  1.888371E-08  3.695300E-09  2.776578E-09 -1.830928E-08  1.076277E-10  2.118314E-11  1.591637E-11 -1.043152E-10  0.000000E+00  0.000000E+00  0.000000E+00  0.000000E+00  0.000000E+00  0.000000E+00  0.000000E+00  0.000000E+00  2.307618E-01  3.811594E-03  2.982257E-03  2.307111E-01                                                                                                                                                                                                                                                                                                                                                                                                                                                                                              
  8.750000E+02  1.250000E+02 -5.225000E+03  1.713378E-08  1.871511E-09  2.914459E-09 -1.678004E-08  9.763493E-11  1.072834E-11  1.670669E-11 -9.559482E-11  0.000000E+00  0.000000E+00  0.000000E+00  0.000000E+00  0.000000E+00  0.000000E+00  0.000000E+00  0.000000E+00  2.343462E-01  1.655420E-03  3.129217E-03  2.343195E-01                                                                                                                                                                                                                                                                                                                                                                                                                                                                                              
  1.050000E+03  1.250000E+02 -5.225000E+03  1.653618E-08 -1.313644E-14  2.931482E-09 -1.627426E-08  9.421253E-11 -7.530483E-17  1.680461E-11 -9.270171E-11  0.000000E+00  0.000000E+00  0.000000E+00  0.000000E+00  0.000000E+00  0.000000E+00  0.000000E+00  0.000000E+00  2.373649E-01 -1.670518E-08  3.148422E-03  2.373440E-01                                                                                                                                                                                                                                                                                                                                                                                                                                                                                              
  1.225000E+03  1.250000E+02 -5.225000E+03  1.713376E-08 -1.871535E-09  2.914443E-09 -1.678002E-08  9.763486E-11 -1.072847E-11  1.670660E-11 -9.559475E-11  0.000000E+00  0.000000E+00  0.000000E+00  0.000000E+00  0.000000E+00  0.000000E+00  0.000000E+00  0.000000E+00  2.343462E-01 -1.655439E-03  3.129197E-03  2.343194E-01                                                                                                                                                                                                                                                                                                                                                                                                                                                                                              
  1.475000E+03  1.250000E+02 -5.225000E+03  1.888368E-08 -3.695324E-09  2.776578E-09 -1.830924E-08  1.076275E-10 -2.118328E-11  1.591637E-11 -1.043150E-10  0.000000E+00  0.000000E+00  0.000000E+00  0.000000E+00  0.000000E+00  0.000000E+00  0.000000E+00  0.000000E+00  2.307618E-01 -3.811610E-03  2.982244E-03  2.307111E-01                                                                                                                                                                                                                                                                                                                                                                                                                                                                                              
  1.725000E+03  1.250000E+02 -5.225000E+03  2.052391E-08 -3.489565E-09  2.586754E-09 -2.005897E-08  1.169743E-10 -2.000391E-11  1.482840E-11 -1.142932E-10  0.000000E+00  0.000000E+00  0.000000E+00  0.000000E+00  0.000000E+00  0.000000E+00  0.000000E+00  0.000000E+00  2.274161E-01 -3.653810E-03  2.759253E-03  2.273700E-01                                                                                                                                                                                                                                                                                                                                                                                                                                                                                              
  1.975000E+03  1.250000E+02 -5.225000E+03  2.139878E-08 -1.414997E-09  2.445304E-09 -2.121146E-08  1.219479E-10 -8.111508E-12  1.401772E-11 -1.208676E-10  0.000000E+00  0.000000E+00  0.000000E+00  0.000000E+00  0.000000E+00  0.000000E+00  0.000000E+00  0.000000E+00  2.250299E-01 -1.493572E-03  2.567265E-03  2.250103E-01                                                                                                                                                                                                                                                                                                                                                                                                                                                                                              
  1.250000E+02  1.250000E+02 -4.975000E+03  6.476834E-08  2.408641E-09  3.293785E-09 -6.463967E-08  3.589504E-10  1.356552E-11  1.855004E-11 -3.582140E-10  0.000000E+00  0.000000E+00  0.000000E+00  0.000000E+00  0.000000E+00  0.000000E+00  0.000000E+00  0.000000E+00  5.913298E-01  3.456050E-03  4.856792E-03  5.912997E-01                                                                                                                                                                                                                                                                                                                                                                                                                                                                                              
  3.750000E+02  1.250000E+02 -4.975000E+03  6.296863E-08  5.953130E-09  3.722381E-09 -6.257597E-08  3.488403E-10  3.352509E-11  2.096032E-11 -3.465923E-10  0.000000E+00  0.000000E+00  0.000000E+00  0.000000E+00  0.000000E+00  0.000000E+00  0.000000E+00  0.000000E+00  6.021118E-01  8.320857E-03  5.862604E-03  6.020258E-01                                                                                                                                                                                                                                                                                                                                                                                                                                                                                              
  6.250000E+02  1.250000E+02 -4.975000E+03  5.991565E-08  6.485867E-09  4.237000E-09 -5.941268E-08  3.317030E-10  3.652005E-11  2.385339E-11 -3.288224E-10  0.000000E+00  0.000000E+00  0.000000E+00  0.000000E+00  0.000000E+00  0.000000E+00  0.000000E+00  0.000000E+00  6.163854E-01  9.230718E-03  6.783363E-03  6.162790E-01                                                                                                                                                                                                                                                                                                                                                                                                                                                                                              
  8.750000E+02  1.250000E+02 -4.975000E+03  5.661571E-08  3.474760E-09  4.589713E-09 -5.632228E-08  3.131662E-10  1.956322E-11  2.583422E-11 -3.114851E-10  0.000000E+00  0.000000E+00  0.000000E+00  0.000000E+00  0.000000E+00  0.000000E+00  0.000000E+00  0.000000E+00  6.317110E-01  5.224921E-03  7.286204E-03  6.316473E-01                                                                                                                                                                                                                                                                                                                                                                                                                                                                                              
  1.050000E+03  1.250000E+02 -4.975000E+03  5.599435E-08  4.511875E-15  4.634249E-09 -5.580225E-08  3.096683E-10  2.539057E-17  2.608411E-11 -3.085678E-10  0.000000E+00  0.000000E+00  0.000000E+00  0.000000E+00  0.000000E+00  0.000000E+00  0.000000E+00  0.000000E+00  6.346229E-01 -7.889899E-08  7.365117E-03  6.345802E-01                                                                                                                                                                                                                                                                                                                                                                                                                                                                                              
  1.225000E+03  1.250000E+02 -4.975000E+03  5.661559E-08 -3.474754E-09  4.589652E-09 -5.632217E-08  3.131656E-10 -1.956319E-11  2.583387E-11 -3.114845E-10  0.000000E+00  0.000000E+00  0.000000E+00  0.000000E+00  0.000000E+00  0.000000E+00  0.000000E+00  0.000000E+00  6.317110E-01 -5.224983E-03  7.286200E-03  6.316474E-01                                                                                                                                                                                                                                                                                                                                                                                                                                                                                              
  1.475000E+03  1.250000E+02 -4.975000E+03  5.991539E-08 -6.485934E-09  4.237003E-09 -5.941241E-08  3.317015E-10 -3.652043E-11  2.385341E-11 -3.288209E-10  0.000000E+00  0.000000E+00  0.000000E+00  0.000000E+00  0.000000E+00  0.000000E+00  0.000000E+00  0.000000E+00  6.163856E-01 -9.230748E-03  6.783417E-03  6.162792E-01                                                                                                                                                                                                                                                                                                                                                                                                                                                                                              
  1.725000E+03  1.250000E+02 -4.975000E+03  6.296850E-08 -5.953174E-09  3.722342E-09 -6.257584E-08  3.488395E-10 -3.352534E-11  2.096009E-11 -3.465916E-10  0.000000E+00  0.000000E+00  0.000000E+00  0.000000E+00  0.000000E+00  0.000000E+00  0.000000E+00  0.000000E+00  6.021119E-01 -8.320866E-03  5.862604E-03  6.020258E-01                                                                                                                                                                                                                                                                                                                                                                                                                                                                                              
  1.975000E+03  1.250000E+02 -4.975000E+03  6.476825E-08 -2.408616E-09  3.293702E-09 -6.463958E-08  3.589499E-10 -1.356538E-11  1.854958E-11 -3.582135E-10  0.000000E+00  0.000000E+00  0.000000E+00  0.000000E+00  0.000000E+00  0.000000E+00  0.000000E+00  0.000000E+00  5.913296E-01 -3.456013E-03  4.856718E-03  5.912996E-01                                                                                                                                                                                                                                                                                                                                                                                                                                                                                              
  1.250000E+02  1.250000E+02 -4.725000E+03  1.751472E-07  4.098536E-09  4.985713E-09 -1.750282E-07  9.233099E-10  2.198885E-11  2.674390E-11 -9.226605E-10  0.000000E+00  0.000000E+00  0.000000E+00  0.000000E+00  0.000000E+00  0.000000E+00  0.000000E+00  0.000000E+00  1.895019E+00  1.190385E-02  1.638528E-02  1.894911E+00                                                                                                                                                                                                                                                                                                                                                                                                                                                                                              
  3.750000E+02  1.250000E+02 -4.725000E+03  1.731279E-07  1.004236E-08  6.454327E-09 -1.727159E-07  9.117761E-10  5.384901E-11  3.458677E-11 -9.095272E-10  0.000000E+00  0.000000E+00  0.000000E+00  0.000000E+00  0.000000E+00  0.000000E+00  0.000000E+00  0.000000E+00  1.932651E+00  2.772959E-02  2.244067E-02  1.932322E+00                                                                                                                                                                                                                                                                                                                                                                                                                                                                                              
  6.250000E+02  1.250000E+02 -4.725000E+03  1.701769E-07  1.157373E-08  7.963916E-09 -1.695960E-07  8.950149E-10  6.200588E-11  4.262624E-11 -8.918464E-10  0.000000E+00  0.000000E+00  0.000000E+00  0.000000E+00  0.000000E+00  0.000000E+00  0.000000E+00  0.000000E+00  1.979054E+00  3.254015E-02  2.723642E-02  1.978599E+00                                                                                                                                                                                                                                                                                                                                                                                                                                                                                              
  8.750000E+02  1.250000E+02 -4.725000E+03  1.641469E-07  6.845098E-09  8.946173E-09 -1.637599E-07  8.620983E-10  3.664846E-11  4.782751E-11 -8.599900E-10  0.000000E+00  0.000000E+00  0.000000E+00  0.000000E+00  0.000000E+00  0.000000E+00  0.000000E+00  0.000000E+00  2.040192E+00  2.086591E-02  2.965970E-02  2.039870E+00                                                                                                                                                                                                                                                                                                                                                                                                                                                                                              
  1.050000E+03  1.250000E+02 -4.725000E+03  1.620013E-07  1.230535E-13  9.098186E-09 -1.617456E-07  8.506565E-10  6.584781E-16  4.862957E-11 -8.492654E-10  0.000000E+00  0.000000E+00  0.000000E+00  0.000000E+00  0.000000E+00  0.000000E+00  0.000000E+00  0.000000E+00  2.055800E+00  5.651852E-08  3.021467E-02  2.055578E+00                                                                                                                                                                                                                                                                                                                                                                                                                                                                                              
  1.225000E+03  1.250000E+02 -4.725000E+03  1.641468E-07 -6.844812E-09  8.946175E-09 -1.637598E-07  8.620980E-10 -3.664693E-11  4.782752E-11 -8.599898E-10  0.000000E+00  0.000000E+00  0.000000E+00  0.000000E+00  0.000000E+00  0.000000E+00  0.000000E+00  0.000000E+00  2.040192E+00 -2.086571E-02  2.965974E-02  2.039870E+00                                                                                                                                                                                                                                                                                                                                                                                                                                                                                              
  1.475000E+03  1.250000E+02 -4.725000E+03  1.701768E-07 -1.157371E-08  7.963641E-09 -1.695959E-07  8.950144E-10 -6.200577E-11  4.262477E-11 -8.918459E-10  0.000000E+00  0.000000E+00  0.000000E+00  0.000000E+00  0.000000E+00  0.000000E+00  0.000000E+00  0.000000E+00  1.979054E+00 -3.254015E-02  2.723622E-02  1.978599E+00                                                                                                                                                                                                                                                                                                                                                                                                                                                                                              
  1.725000E+03  1.250000E+02 -4.725000E+03  1.731278E-07 -1.004260E-08  6.454076E-09 -1.727158E-07  9.117757E-10 -5.385031E-11  3.458543E-11 -9.095267E-10  0.000000E+00  0.000000E+00  0.000000E+00  0.000000E+00  0.000000E+00  0.000000E+00  0.000000E+00  0.000000E+00  1.932651E+00 -2.772996E-02  2.244051E-02  1.932322E+00                                                                                                                                                                                                                                                                                                                                                                                                                                                                                              