Title="TOUGHREACT V3.30-OMP flowvector.tec: Liq & Gas Fluxes (kg/s/m^2), Pore Velocities (m/s), & Heat Fluxes (J/s/m2)"                                                                                                                                                                                                                                                                                                                                                                                                                                                                                                                                                                                                                                                                                                         
Variables= "X(m)"     "Y(m)"      "Z(m)"     "FluxLiq"   "FluxLiq_X"   "FluxLiq_Y"   "FluxLiq_Z"   "PorVelLiq"  "PorVelLiqX"  "PorVelLiqY"  "PorVelLiqZ"     "FluxGas"   "FluxGas_X"   "FluxGas_Y"   "FluxGas_Z"   "PorVelGas"  "PorVelGasX"  "PorVelGasY"  "PorVelGasZ"    "HeatFlux"  "HeatFlux_X"  "HeatFlux_Y"  "HeatFlux_Z"                                                                                                                                                                                                                                                                                                                                                                                                                                                                                                
Zone T= "1.00000000E+11 sec" I=     9 J=    10 K=    23 F=Point
  1.250000E+02  1.250000E+02 -5.425000E+03  7.946580E-09 -6.978836E-10 -8.234342E-10 -7.872931E-09  4.326870E-11 -3.825771E-12 -4.513952E-12 -4.286220E-11  0.000000E+00  0.000000E+00  0.000000E+00  0.000000E+00  0.000000E+00  0.000000E+00  0.000000E+00  0.000000E+00  1.752696E-01  2.624952E-03  2.897269E-03  1.752260E-01                                                                                                                                                                                                                                                                                                                                                                                                                                                                                              
  3.750000E+02  1.250000E+02 -5.425000E+03  8.334521E-09 -1.675273E-09 -8.559793E-10 -8.119421E-09  4.537559E-11 -9.181787E-12 -4.690829E-12 -4.418863E-11  0.000000E+00  0.000000E+00  0.000000E+00  0.000000E+00  0.000000E+00  0.000000E+00  0.000000E+00  0.000000E+00  1.765560E-01  6.251990E-03  3.147916E-03  1.764172E-01                                                                                                                                                                                                                                                                                                                                                                                                                                                                                              
  6.250000E+02  1.250000E+02 -5.425000E+03  8.664924E-09 -1.682702E-09 -8.884598E-10 -8.453405E-09  4.715069E-11 -9.219708E-12 -4.866643E-12 -4.598369E-11  0.000000E+00  0.000000E+00  0.000000E+00  0.000000E+00  0.000000E+00  0.000000E+00  0.000000E+00  0.000000E+00  1.783695E-01  5.815323E-03  3.440386E-03  1.782415E-01                                                                                                                                                                                                                                                                                                                                                                                                                                                                                              
  8.750000E+02  1.250000E+02 -5.425000E+03  8.761669E-09 -7.768541E-10 -9.041236E-10 -8.680201E-09  4.765064E-11 -4.255567E-12 -4.951060E-12 -4.720128E-11  0.000000E+00  0.000000E+00  0.000000E+00  0.000000E+00  0.000000E+00  0.000000E+00  0.000000E+00  0.000000E+00  1.803920E-01 -9.063263E-05  3.620555E-03  1.803557E-01                                                                                                                                                                                                                                                                                                                                                                                                                                                                                              
  1.050000E+03  1.250000E+02 -5.425000E+03  8.569493E-09  1.736657E-14 -9.066563E-10 -8.521396E-09  4.660587E-11  9.512737E-17 -4.965673E-12 -4.634057E-11  0.000000E+00  0.000000E+00  0.000000E+00  0.000000E+00  0.000000E+00  0.000000E+00  0.000000E+00  0.000000E+00  1.828977E-01  2.733595E-08  3.640754E-03  1.828615E-01                                                                                                                                                                                                                                                                                                                                                                                                                                                                                              
  1.225000E+03  1.250000E+02 -5.425000E+03  8.761688E-09  7.768350E-10 -9.041180E-10 -8.680223E-09  4.765075E-11  4.255462E-12 -4.951030E-12 -4.720140E-11  0.000000E+00  0.000000E+00  0.000000E+00  0.000000E+00  0.000000E+00  0.000000E+00  0.000000E+00  0.000000E+00  1.803920E-01  9.062940E-05  3.620547E-03  1.803556E-01                                                                                                                                                                                                                                                                                                                                                                                                                                                                                              
  1.475000E+03  1.250000E+02 -5.425000E+03  8.664895E-09  1.682642E-09 -8.884438E-10 -8.453390E-09  4.715053E-11  9.219377E-12 -4.866555E-12 -4.598361E-11  0.000000E+00  0.000000E+00  0.000000E+00  0.000000E+00  0.000000E+00  0.000000E+00  0.000000E+00  0.000000E+00  1.783695E-01 -5.815352E-03  3.440421E-03  1.782415E-01                                                                                                                                                                                                                                                                                                                                                                                                                                                                                              
  1.725000E+03  1.250000E+02 -5.425000E+03  8.334517E-09  1.675283E-09 -8.559179E-10 -8.119421E-09  4.537557E-11  9.181845E-12 -4.690493E-12 -4.418863E-11  0.000000E+00  0.000000E+00  0.000000E+00  0.000000E+00  0.000000E+00  0.000000E+00  0.000000E+00  0.000000E+00  1.765561E-01 -6.251939E-03  3.147940E-03  1.764173E-01                                                                                                                                                                                                                                                                                                                                                                                                                                                                                              
  1.975000E+03  1.250000E+02 -5.425000E+03  7.946550E-09  6.979181E-10 -8.234237E-10 -7.872899E-09  4.326854E-11  3.825960E-12 -4.513895E-12 -4.286202E-11  0.000000E+00  0.000000E+00  0.000000E+00  0.000000E+00  0.000000E+00  0.000000E+00  0.000000E+00  0.000000E+00  1.752696E-01 -2.624902E-03  2.897235E-03  1.752260E-01                                                                                                                                                                                                                                                                                                                                                                                                                                                                                              
  1.250000E+02  1.250000E+02 -5.225000E+03  2.872822E-08 -1.563864E-10 -1.900645E-10 -2.872717E-08  1.539130E-10 -8.456862E-13 -1.027790E-12 -1.539073E-10  0.000000E+00  0.000000E+00  0.000000E+00  0.000000E+00  0.000000E+00  0.000000E+00  0.000000E+00  0.000000E+00  5.333307E-01  4.162005E-03  4.479081E-03  5.332956E-01                                                                                                                                                                                                                                                                                                                                                                                                                                                                                              
  3.750000E+02  1.250000E+02 -5.225000E+03  2.933928E-08 -3.697306E-10 -1.825614E-10 -2.933638E-08  1.571244E-10 -1.998837E-12 -9.868088E-13 -1.571086E-10  0.000000E+00  0.000000E+00  0.000000E+00  0.000000E+00  0.000000E+00  0.000000E+00  0.000000E+00  0.000000E+00  5.382301E-01  1.006129E-02  4.958764E-03  5.381132E-01                                                                                                                                                                                                                                                                                                                                                                                                                                                                                              
  6.250000E+02  1.250000E+02 -5.225000E+03  3.014051E-08 -3.826797E-10 -1.644073E-10 -3.013763E-08  1.613247E-10 -2.067983E-12 -8.881666E-13 -1.613090E-10  0.000000E+00  0.000000E+00  0.000000E+00  0.000000E+00  0.000000E+00  0.000000E+00  0.000000E+00  0.000000E+00  5.452729E-01  1.034370E-02  5.481997E-03  5.451473E-01                                                                                                                                                                                                                                                                                                                                                                                                                                                                                              
  8.750000E+02  1.250000E+02 -5.225000E+03  3.069155E-08 -2.244322E-10 -1.457548E-10 -3.069038E-08  1.642004E-10 -1.212422E-12 -7.870632E-13 -1.641940E-10  0.000000E+00  0.000000E+00  0.000000E+00  0.000000E+00  0.000000E+00  0.000000E+00  0.000000E+00  0.000000E+00  5.521866E-01  4.909913E-03  5.783732E-03  5.521345E-01                                                                                                                                                                                                                                                                                                                                                                                                                                                                                              
  1.050000E+03  1.250000E+02 -5.225000E+03  3.053915E-08 -6.899145E-15 -1.433511E-10 -3.053881E-08  1.633664E-10 -3.726397E-17 -7.740572E-13 -1.633646E-10  0.000000E+00  0.000000E+00  0.000000E+00  0.000000E+00  0.000000E+00  0.000000E+00  0.000000E+00  0.000000E+00  5.555521E-01  3.924014E-09  5.819981E-03  5.555216E-01                                                                                                                                                                                                                                                                                                                                                                                                                                                                                              
  1.225000E+03  1.250000E+02 -5.225000E+03  3.069159E-08  2.244220E-10 -1.457597E-10 -3.069043E-08  1.642006E-10  1.212367E-12 -7.870899E-13 -1.641943E-10  0.000000E+00  0.000000E+00  0.000000E+00  0.000000E+00  0.000000E+00  0.000000E+00  0.000000E+00  0.000000E+00  5.521866E-01 -4.909906E-03  5.783729E-03  5.521345E-01                                                                                                                                                                                                                                                                                                                                                                                                                                                                                              
  1.475000E+03  1.250000E+02 -5.225000E+03  3.014052E-08  3.826470E-10 -1.643724E-10 -3.013764E-08  1.613247E-10  2.067806E-12 -8.879783E-13 -1.613090E-10  0.000000E+00  0.000000E+00  0.000000E+00  0.000000E+00  0.000000E+00  0.000000E+00  0.000000E+00  0.000000E+00  5.452729E-01 -1.034367E-02  5.482019E-03  5.451473E-01                                                                                                                                                                                                                                                                                                                                                                                                                                                                                              
  1.725000E+03  1.250000E+02 -5.225000E+03  2.933928E-08  3.697596E-10 -1.825245E-10 -2.933638E-08  1.571244E-10  1.998994E-12 -9.866091E-13 -1.571086E-10  0.000000E+00  0.000000E+00  0.000000E+00  0.000000E+00  0.000000E+00  0.000000E+00  0.000000E+00  0.000000E+00  5.382301E-01 -1.006125E-02  4.958744E-03  5.381132E-01                                                                                                                                                                                                                                                                                                                                                                                                                                                                                              
  1.975000E+03  1.250000E+02 -5.225000E+03  2.872821E-08  1.564449E-10 -1.901028E-10 -2.872715E-08  1.539129E-10  8.460021E-13 -1.027997E-12 -1.539072E-10  0.000000E+00  0.000000E+00  0.000000E+00  0.000000E+00  0.000000E+00  0.000000E+00  0.000000E+00  0.000000E+00  5.333306E-01 -4.161986E-03  4.479043E-03  5.332956E-01                                                                                                                                                                                                                                                                                                                                                                                                                                                                                              
  1.250000E+02  1.250000E+02 -4.975000E+03  5.214034E-08  4.506250E-10  4.821046E-10 -5.213617E-08  2.723184E-10  2.361865E-12  2.526812E-12 -2.722965E-10  0.000000E+00  0.000000E+00  0.000000E+00  0.000000E+00  0.000000E+00  0.000000E+00  0.000000E+00  0.000000E+00  8.605045E-01  8.316429E-03  8.805451E-03  8.604193E-01                                                                                                                                                                                                                                                                                                                                                                                                                                                                                              
  3.750000E+02  1.250000E+02 -4.975000E+03  5.271319E-08  1.126862E-09  5.798907E-10 -5.269796E-08  2.751616E-10  5.903573E-12  3.037280E-12 -2.750815E-10  0.000000E+00  0.000000E+00  0.000000E+00  0.000000E+00  0.000000E+00  0.000000E+00  0.000000E+00  0.000000E+00  8.712353E-01  2.015545E-02  1.033121E-02  8.709408E-01                                                                                                                                                                                                                                                                                                                                                                                                                                                                                              
  6.250000E+02  1.250000E+02 -4.975000E+03  5.339393E-08  1.249942E-09  7.008290E-10 -5.337470E-08  2.785054E-10  6.544024E-12  3.667317E-12 -2.784043E-10  0.000000E+00  0.000000E+00  0.000000E+00  0.000000E+00  0.000000E+00  0.000000E+00  0.000000E+00  0.000000E+00  8.857340E-01  2.172114E-02  1.180461E-02  8.853889E-01                                                                                                                                                                                                                                                                                                                                                                                                                                                                                              
  8.750000E+02  1.250000E+02 -4.975000E+03  5.370671E-08  6.775085E-10  7.847951E-10 -5.369670E-08  2.799609E-10  3.545329E-12  4.103618E-12 -2.799083E-10  0.000000E+00  0.000000E+00  0.000000E+00  0.000000E+00  0.000000E+00  0.000000E+00  0.000000E+00  0.000000E+00  9.005995E-01  1.169781E-02  1.255664E-02  9.004360E-01                                                                                                                                                                                                                                                                                                                                                                                                                                                                                              
  1.050000E+03  1.250000E+02 -4.975000E+03  5.367216E-08 -3.377808E-14  7.954654E-10 -5.366626E-08  2.797566E-10 -1.766979E-16  4.159012E-12 -2.797257E-10  0.000000E+00  0.000000E+00  0.000000E+00  0.000000E+00  0.000000E+00  0.000000E+00  0.000000E+00  0.000000E+00  9.031890E-01 -2.643936E-08  1.265390E-02  9.031004E-01                                                                                                                                                                                                                                                                                                                                                                                                                                                                                              
  1.225000E+03  1.250000E+02 -4.975000E+03  5.370672E-08 -6.775497E-10  7.848120E-10 -5.369671E-08  2.799609E-10 -3.545544E-12  4.103706E-12 -2.799084E-10  0.000000E+00  0.000000E+00  0.000000E+00  0.000000E+00  0.000000E+00  0.000000E+00  0.000000E+00  0.000000E+00  9.005995E-01 -1.169783E-02  1.255666E-02  9.004360E-01                                                                                                                                                                                                                                                                                                                                                                                                                                                                                              
  1.475000E+03  1.250000E+02 -4.975000E+03  5.339395E-08 -1.249943E-09  7.008640E-10 -5.337471E-08  2.785054E-10 -6.544032E-12  3.667500E-12 -2.784044E-10  0.000000E+00  0.000000E+00  0.000000E+00  0.000000E+00  0.000000E+00  0.000000E+00  0.000000E+00  0.000000E+00  8.857340E-01 -2.172114E-02  1.180464E-02  8.853889E-01                                                                                                                                                                                                                                                                                                                                                                                                                                                                                              
  1.725000E+03  1.250000E+02 -4.975000E+03  5.271318E-08 -1.126828E-09  5.799014E-10 -5.269795E-08  2.751616E-10 -5.903394E-12  3.037336E-12 -2.750815E-10  0.000000E+00  0.000000E+00  0.000000E+00  0.000000E+00  0.000000E+00  0.000000E+00  0.000000E+00  0.000000E+00  8.712352E-01 -2.015544E-02  1.033122E-02  8.709408E-01                                                                                                                                                                                                                                                                                                                                                                                                                                                                                              
  1.975000E+03  1.250000E+02 -4.975000E+03  5.214036E-08 -4.505967E-10  4.820867E-10 -5.213619E-08  2.723186E-10 -2.361717E-12  2.526718E-12 -2.722966E-10  0.000000E+00  0.000000E+00  0.000000E+00  0.000000E+00  0.000000E+00  0.000000E+00  0.000000E+00  0.000000E+00  8.605045E-01 -8.316410E-03  8.805431E-03  8.604193E-01                                                                                                                                                                                                                                                                                                                                                                                                                                                                                              
  1.250000E+02  1.250000E+02 -4.725000E+03  6.781540E-08  5.485901E-10  5.963407E-10 -6.781055E-08  3.446569E-10  2.778026E-12  3.019649E-12 -3.446325E-10  0.000000E+00  0.000000E+00  0.000000E+00  0.000000E+00  0.000000E+00  0.000000E+00  0.000000E+00  0.000000E+00  1.066702E+00  1.503662E-02  1.711241E-02  1.066459E+00                                                                                                                                                                                                                                                                                                                                                                                                                                                                                              
  3.750000E+02  1.250000E+02 -4.725000E+03  6.806891E-08  1.361392E-09  8.083696E-10 -6.805049E-08  3.456932E-10  6.889928E-12  4.089305E-12 -3.456003E-10  0.000000E+00  0.000000E+00  0.000000E+00  0.000000E+00  0.000000E+00  0.000000E+00  0.000000E+00  0.000000E+00  1.084193E+00  3.583067E-02  2.227689E-02  1.083372E+00                                                                                                                                                                                                                                                                                                                                                                                                                                                                                              
  6.250000E+02  1.250000E+02 -4.725000E+03  6.832549E-08  1.615782E-09  1.027449E-09 -6.829866E-08  3.466556E-10  8.169686E-12  5.191109E-12 -3.465205E-10  0.000000E+00  0.000000E+00  0.000000E+00  0.000000E+00  0.000000E+00  0.000000E+00  0.000000E+00  0.000000E+00  1.104053E+00  4.055343E-02  2.660018E-02  1.102987E+00                                                                                                                                                                                                                                                                                                                                                                                                                                                                                              
  8.750000E+02  1.250000E+02 -4.725000E+03  6.772831E-08  9.938623E-10  1.163800E-09 -6.771102E-08  3.433242E-10  5.021824E-12  5.873553E-12 -3.432372E-10  0.000000E+00  0.000000E+00  0.000000E+00  0.000000E+00  0.000000E+00  0.000000E+00  0.000000E+00  0.000000E+00  1.135037E+00  2.405609E-02  2.855775E-02  1.134422E+00                                                                                                                                                                                                                                                                                                                                                                                                                                                                                              
  1.050000E+03  1.250000E+02 -4.725000E+03  6.730409E-08 -8.572971E-15  1.181938E-09 -6.729371E-08  3.411395E-10 -4.329753E-17  5.964099E-12 -3.410874E-10  0.000000E+00  0.000000E+00  0.000000E+00  0.000000E+00  0.000000E+00  0.000000E+00  0.000000E+00  0.000000E+00  1.143800E+00 -6.450916E-09  2.890773E-02  1.143435E+00                                                                                                                                                                                                                                                                                                                                                                                                                                                                                              
  1.225000E+03  1.250000E+02 -4.725000E+03  6.772830E-08 -9.938680E-10  1.163807E-09 -6.771101E-08  3.433242E-10 -5.021853E-12  5.873588E-12 -3.432372E-10  0.000000E+00  0.000000E+00  0.000000E+00  0.000000E+00  0.000000E+00  0.000000E+00  0.000000E+00  0.000000E+00  1.135037E+00 -2.405609E-02  2.855773E-02  1.134422E+00                                                                                                                                                                                                                                                                                                                                                                                                                                                                                              
  1.475000E+03  1.250000E+02 -4.725000E+03  6.832547E-08 -1.615781E-09  1.027454E-09 -6.829864E-08  3.466555E-10 -8.169678E-12  5.191136E-12 -3.465204E-10  0.000000E+00  0.000000E+00  0.000000E+00  0.000000E+00  0.000000E+00  0.000000E+00  0.000000E+00  0.000000E+00  1.104053E+00 -4.055342E-02  2.660019E-02  1.102987E+00                                                                                                                                                                                                                                                                                                                                                                                                                                                                                              
  1.725000E+03  1.250000E+02 -4.725000E+03  6.806889E-08 -1.361392E-09  8.083750E-10 -6.805048E-08  3.456931E-10 -6.889929E-12  4.089333E-12 -3.456002E-10  0.000000E+00  0.000000E+00  0.000000E+00  0.000000E+00  0.000000E+00  0.000000E+00  0.000000E+00  0.000000E+00  1.084193E+00 -3.583066E-02  2.227689E-02  1.083372E+00                                                                                                                                                                                                                                                                                                                                                                                                                                                                                              