Title="TOUGHREACT V3.30-OMP flowvector.tec: Liq & Gas Fluxes (kg/s/m^2), Pore Velocities (m/s), & Heat Fluxes (J/s/m2)"                                                                                                                                                                                                                                                                                                                                                                                                                                                                                                                                                                                                                                                                                                         
Variables= "X(m)"     "Y(m)"      "Z(m)"     "FluxLiq"   "FluxLiq_X"   "FluxLiq_Y"   "FluxLiq_Z"   "PorVelLiq"  "PorVelLiqX"  "PorVelLiqY"  "PorVelLiqZ"     "FluxGas"   "FluxGas_X"   "FluxGas_Y"   "FluxGas_Z"   "PorVelGas"  "PorVelGasX"  "PorVelGasY"  "PorVelGasZ"    "HeatFlux"  "HeatFlux_X"  "HeatFlux_Y"  "HeatFlux_Z"                                                                                                                                                                                                                                                                                                                                                                                                                                                                                                
Zone T= "1.00000000E+09 sec" I=     9 J=    10 K=    23 F=Point
  1.250000E+02  1.250000E+02 -5.425000E+03  7.048819E-09  2.029089E-09  4.757654E-09 -4.788880E-09  4.075708E-11  1.176020E-11  2.757445E-11 -2.761317E-11  0.000000E+00  0.000000E+00  0.000000E+00  0.000000E+00  0.000000E+00  0.000000E+00  0.000000E+00  0.000000E+00  9.259664E-02  2.061061E-03  4.832971E-03  9.244746E-02                                                                                                                                                                                                                                                                                                                                                                                                                                                                                              
  3.750000E+02  1.250000E+02 -5.425000E+03  8.105287E-09  4.942250E-09  4.854233E-09 -4.207881E-09  4.691216E-11  2.864442E-11  2.813437E-11 -2.426324E-11  0.000000E+00  0.000000E+00  0.000000E+00  0.000000E+00  0.000000E+00  0.000000E+00  0.000000E+00  0.000000E+00  9.328298E-02  5.020065E-03  4.931092E-03  9.301719E-02                                                                                                                                                                                                                                                                                                                                                                                                                                                                                              
  6.250000E+02  1.250000E+02 -5.425000E+03  7.900192E-09  5.127190E-09  4.963356E-09 -3.389698E-09  4.574547E-11  2.971649E-11  2.876708E-11 -1.954568E-11  0.000000E+00  0.000000E+00  0.000000E+00  0.000000E+00  0.000000E+00  0.000000E+00  0.000000E+00  0.000000E+00  9.409869E-02  5.196195E-03  5.042000E-03  9.381972E-02                                                                                                                                                                                                                                                                                                                                                                                                                                                                                              
  8.750000E+02  1.250000E+02 -5.425000E+03  6.213972E-09  2.466380E-09  5.030392E-09 -2.688043E-09  3.598133E-11  1.429493E-11  2.915584E-11 -1.549993E-11  0.000000E+00  0.000000E+00  0.000000E+00  0.000000E+00  0.000000E+00  0.000000E+00  0.000000E+00  0.000000E+00  9.467655E-02  1.743053E-03  5.110197E-03  9.452247E-02                                                                                                                                                                                                                                                                                                                                                                                                                                                                                              
  1.050000E+03  1.250000E+02 -5.425000E+03  5.587035E-09  1.269953E-16  5.039203E-09 -2.412758E-09  3.235316E-11  7.360118E-19  2.920880E-11 -1.391304E-11  0.000000E+00  0.000000E+00  0.000000E+00  0.000000E+00  0.000000E+00  0.000000E+00  0.000000E+00  0.000000E+00  9.557424E-02 -9.897606E-10  5.120329E-03  9.543698E-02                                                                                                                                                                                                                                                                                                                                                                                                                                                                                              
  1.225000E+03  1.250000E+02 -5.425000E+03  6.213972E-09 -2.466380E-09  5.030392E-09 -2.688043E-09  3.598133E-11 -1.429493E-11  2.915584E-11 -1.549993E-11  0.000000E+00  0.000000E+00  0.000000E+00  0.000000E+00  0.000000E+00  0.000000E+00  0.000000E+00  0.000000E+00  9.467655E-02 -1.743053E-03  5.110197E-03  9.452247E-02                                                                                                                                                                                                                                                                                                                                                                                                                                                                                              
  1.475000E+03  1.250000E+02 -5.425000E+03  7.900192E-09 -5.127191E-09  4.963356E-09 -3.389698E-09  4.574547E-11 -2.971649E-11  2.876708E-11 -1.954568E-11  0.000000E+00  0.000000E+00  0.000000E+00  0.000000E+00  0.000000E+00  0.000000E+00  0.000000E+00  0.000000E+00  9.409869E-02 -5.196194E-03  5.042000E-03  9.381972E-02                                                                                                                                                                                                                                                                                                                                                                                                                                                                                              
  1.725000E+03  1.250000E+02 -5.425000E+03  8.105287E-09 -4.942250E-09  4.854233E-09 -4.207881E-09  4.691216E-11 -2.864442E-11  2.813437E-11 -2.426324E-11  0.000000E+00  0.000000E+00  0.000000E+00  0.000000E+00  0.000000E+00  0.000000E+00  0.000000E+00  0.000000E+00  9.328298E-02 -5.020065E-03  4.931091E-03  9.301719E-02                                                                                                                                                                                                                                                                                                                                                                                                                                                                                              
  1.975000E+03  1.250000E+02 -5.425000E+03  7.048819E-09 -2.029089E-09  4.757654E-09 -4.788880E-09  4.075708E-11 -1.176020E-11  2.757445E-11 -2.761317E-11  0.000000E+00  0.000000E+00  0.000000E+00  0.000000E+00  0.000000E+00  0.000000E+00  0.000000E+00  0.000000E+00  9.259664E-02 -2.061062E-03  4.832971E-03  9.244746E-02                                                                                                                                                                                                                                                                                                                                                                                                                                                                                              
  1.250000E+02  1.250000E+02 -5.225000E+03  1.517578E-08  2.454179E-09  5.248038E-09 -1.402638E-08  8.693744E-11  1.409249E-11  3.013553E-11 -8.032042E-11  0.000000E+00  0.000000E+00  0.000000E+00  0.000000E+00  0.000000E+00  0.000000E+00  0.000000E+00  0.000000E+00  1.839280E-01  2.407890E-03  5.149706E-03  1.838402E-01                                                                                                                                                                                                                                                                                                                                                                                                                                                                                              
  3.750000E+02  1.250000E+02 -5.225000E+03  1.423031E-08  5.964838E-09  5.410659E-09 -1.173231E-08  8.157126E-11  3.425170E-11  3.106957E-11 -6.719653E-11  0.000000E+00  0.000000E+00  0.000000E+00  0.000000E+00  0.000000E+00  0.000000E+00  0.000000E+00  0.000000E+00  1.862113E-01  5.852448E-03  5.309512E-03  1.860436E-01                                                                                                                                                                                                                                                                                                                                                                                                                                                                                              
  6.250000E+02  1.250000E+02 -5.225000E+03  1.197364E-08  6.241218E-09  5.574983E-09 -8.563571E-09  6.867981E-11  3.583902E-11  3.201349E-11 -4.906748E-11  0.000000E+00  0.000000E+00  0.000000E+00  0.000000E+00  0.000000E+00  0.000000E+00  0.000000E+00  0.000000E+00  1.892615E-01  6.123619E-03  5.471072E-03  1.890833E-01                                                                                                                                                                                                                                                                                                                                                                                                                                                                                              
  8.750000E+02  1.250000E+02 -5.225000E+03  8.749617E-09  3.185245E-09  5.665165E-09 -5.857980E-09  5.020942E-11  1.829080E-11  3.253161E-11 -3.358759E-11  0.000000E+00  0.000000E+00  0.000000E+00  0.000000E+00  0.000000E+00  0.000000E+00  0.000000E+00  0.000000E+00  1.918130E-01  3.111241E-03  5.559856E-03  1.917072E-01                                                                                                                                                                                                                                                                                                                                                                                                                                                                                              
  1.050000E+03  1.250000E+02 -5.225000E+03  7.760186E-09 -1.048172E-17  5.676567E-09 -5.291227E-09  4.453028E-11 -6.019107E-20  3.259716E-11 -3.033762E-11  0.000000E+00  0.000000E+00  0.000000E+00  0.000000E+00  0.000000E+00  0.000000E+00  0.000000E+00  0.000000E+00  1.929959E-01 -1.823805E-11  5.571110E-03  1.929155E-01                                                                                                                                                                                                                                                                                                                                                                                                                                                                                              
  1.225000E+03  1.250000E+02 -5.225000E+03  8.749617E-09 -3.185245E-09  5.665165E-09 -5.857980E-09  5.020942E-11 -1.829080E-11  3.253161E-11 -3.358760E-11  0.000000E+00  0.000000E+00  0.000000E+00  0.000000E+00  0.000000E+00  0.000000E+00  0.000000E+00  0.000000E+00  1.918130E-01 -3.111241E-03  5.559856E-03  1.917072E-01                                                                                                                                                                                                                                                                                                                                                                                                                                                                                              
  1.475000E+03  1.250000E+02 -5.225000E+03  1.197364E-08 -6.241218E-09  5.574983E-09 -8.563571E-09  6.867981E-11 -3.583902E-11  3.201349E-11 -4.906748E-11  0.000000E+00  0.000000E+00  0.000000E+00  0.000000E+00  0.000000E+00  0.000000E+00  0.000000E+00  0.000000E+00  1.892615E-01 -6.123619E-03  5.471072E-03  1.890833E-01                                                                                                                                                                                                                                                                                                                                                                                                                                                                                              
  1.725000E+03  1.250000E+02 -5.225000E+03  1.423031E-08 -5.964838E-09  5.410659E-09 -1.173231E-08  8.157126E-11 -3.425170E-11  3.106957E-11 -6.719653E-11  0.000000E+00  0.000000E+00  0.000000E+00  0.000000E+00  0.000000E+00  0.000000E+00  0.000000E+00  0.000000E+00  1.862113E-01 -5.852447E-03  5.309511E-03  1.860436E-01                                                                                                                                                                                                                                                                                                                                                                                                                                                                                              
  1.975000E+03  1.250000E+02 -5.225000E+03  1.517578E-08 -2.454179E-09  5.248038E-09 -1.402638E-08  8.693744E-11 -1.409249E-11  3.013553E-11 -8.032042E-11  0.000000E+00  0.000000E+00  0.000000E+00  0.000000E+00  0.000000E+00  0.000000E+00  0.000000E+00  0.000000E+00  1.839280E-01 -2.407890E-03  5.149706E-03  1.838402E-01                                                                                                                                                                                                                                                                                                                                                                                                                                                                                              
  1.250000E+02  1.250000E+02 -4.975000E+03  3.246111E-08  4.108943E-09  7.398516E-09 -3.133851E-08  1.834825E-10  2.332351E-11  4.199601E-11 -1.770824E-10  0.000000E+00  0.000000E+00  0.000000E+00  0.000000E+00  0.000000E+00  0.000000E+00  0.000000E+00  0.000000E+00  2.193714E-01  3.878260E-03  6.990655E-03  2.192257E-01                                                                                                                                                                                                                                                                                                                                                                                                                                                                                              
  3.750000E+02  1.250000E+02 -4.975000E+03  2.920235E-08  9.885370E-09  7.913616E-09 -2.631409E-08  1.651296E-10  5.611244E-11  4.492022E-11 -1.486652E-10  0.000000E+00  0.000000E+00  0.000000E+00  0.000000E+00  0.000000E+00  0.000000E+00  0.000000E+00  0.000000E+00  2.259404E-01  9.325075E-03  7.496198E-03  2.256234E-01                                                                                                                                                                                                                                                                                                                                                                                                                                                                                              
  6.250000E+02  1.250000E+02 -4.975000E+03  2.377949E-08  1.044842E-08  8.331110E-09 -1.966945E-08  1.345117E-10  5.930902E-11  4.729065E-11 -1.110830E-10  0.000000E+00  0.000000E+00  0.000000E+00  0.000000E+00  0.000000E+00  0.000000E+00  0.000000E+00  0.000000E+00  2.341902E-01  9.867499E-03  7.901915E-03  2.338487E-01                                                                                                                                                                                                                                                                                                                                                                                                                                                                                              
  8.750000E+02  1.250000E+02 -4.975000E+03  1.687535E-08  5.532026E-09  8.496998E-09 -1.348982E-08  9.545080E-11  3.140207E-11  4.823272E-11 -7.614703E-11  0.000000E+00  0.000000E+00  0.000000E+00  0.000000E+00  0.000000E+00  0.000000E+00  0.000000E+00  0.000000E+00  2.422472E-01  5.242045E-03  8.061393E-03  2.420563E-01                                                                                                                                                                                                                                                                                                                                                                                                                                                                                              
  1.050000E+03  1.250000E+02 -4.975000E+03  1.513227E-08 -7.809411E-17  8.518946E-09 -1.250653E-08  8.556513E-11 -4.431711E-19  4.835733E-11 -7.059008E-11  0.000000E+00  0.000000E+00  0.000000E+00  0.000000E+00  0.000000E+00  0.000000E+00  0.000000E+00  0.000000E+00  2.437367E-01  5.929124E-10  8.082893E-03  2.436026E-01                                                                                                                                                                                                                                                                                                                                                                                                                                                                                              
  1.225000E+03  1.250000E+02 -4.975000E+03  1.687535E-08 -5.532026E-09  8.496998E-09 -1.348982E-08  9.545080E-11 -3.140207E-11  4.823272E-11 -7.614703E-11  0.000000E+00  0.000000E+00  0.000000E+00  0.000000E+00  0.000000E+00  0.000000E+00  0.000000E+00  0.000000E+00  2.422472E-01 -5.242045E-03  8.061393E-03  2.420563E-01                                                                                                                                                                                                                                                                                                                                                                                                                                                                                              
  1.475000E+03  1.250000E+02 -4.975000E+03  2.377949E-08 -1.044842E-08  8.331110E-09 -1.966945E-08  1.345117E-10 -5.930902E-11  4.729065E-11 -1.110830E-10  0.000000E+00  0.000000E+00  0.000000E+00  0.000000E+00  0.000000E+00  0.000000E+00  0.000000E+00  0.000000E+00  2.341902E-01 -9.867499E-03  7.901915E-03  2.338487E-01                                                                                                                                                                                                                                                                                                                                                                                                                                                                                              
  1.725000E+03  1.250000E+02 -4.975000E+03  2.920235E-08 -9.885370E-09  7.913616E-09 -2.631409E-08  1.651296E-10 -5.611244E-11  4.492022E-11 -1.486652E-10  0.000000E+00  0.000000E+00  0.000000E+00  0.000000E+00  0.000000E+00  0.000000E+00  0.000000E+00  0.000000E+00  2.259404E-01 -9.325075E-03  7.496198E-03  2.256234E-01                                                                                                                                                                                                                                                                                                                                                                                                                                                                                              
  1.975000E+03  1.250000E+02 -4.975000E+03  3.246111E-08 -4.108943E-09  7.398515E-09 -3.133851E-08  1.834825E-10 -2.332351E-11  4.199601E-11 -1.770823E-10  0.000000E+00  0.000000E+00  0.000000E+00  0.000000E+00  0.000000E+00  0.000000E+00  0.000000E+00  0.000000E+00  2.193714E-01 -3.878260E-03  6.990655E-03  2.192257E-01                                                                                                                                                                                                                                                                                                                                                                                                                                                                                              
  1.250000E+02  1.250000E+02 -4.725000E+03  2.123438E-07  7.518651E-09  1.281515E-08 -2.118233E-07  1.130355E-09  4.198708E-11  7.155670E-11 -1.127306E-09  0.000000E+00  0.000000E+00  0.000000E+00  0.000000E+00  0.000000E+00  0.000000E+00  0.000000E+00  0.000000E+00  2.122653E+00  8.448715E-03  1.514639E-02  2.122582E+00                                                                                                                                                                                                                                                                                                                                                                                                                                                                                              
  3.750000E+02  1.250000E+02 -4.725000E+03  2.066849E-07  1.766960E-08  1.479400E-08 -2.053961E-07  1.099010E-09  9.866269E-11  8.258531E-11 -1.091452E-09  0.000000E+00  0.000000E+00  0.000000E+00  0.000000E+00  0.000000E+00  0.000000E+00  0.000000E+00  0.000000E+00  2.170314E+00  1.956381E-02  1.819797E-02  2.170149E+00                                                                                                                                                                                                                                                                                                                                                                                                                                                                                              
  6.250000E+02  1.250000E+02 -4.725000E+03  1.994985E-07  1.919375E-08  1.605259E-08 -1.979231E-07  1.058939E-09  1.071523E-10  8.958897E-11 -1.049688E-09  0.000000E+00  0.000000E+00  0.000000E+00  0.000000E+00  0.000000E+00  0.000000E+00  0.000000E+00  0.000000E+00  2.224471E+00  2.167164E-02  1.997125E-02  2.224276E+00                                                                                                                                                                                                                                                                                                                                                                                                                                                                                              
  8.750000E+02  1.250000E+02 -4.725000E+03  1.886005E-07  1.099380E-08  1.632794E-08 -1.875704E-07  9.987624E-10  6.136543E-11  9.110222E-11 -9.927039E-10  0.000000E+00  0.000000E+00  0.000000E+00  0.000000E+00  0.000000E+00  0.000000E+00  0.000000E+00  0.000000E+00  2.288167E+00  1.319488E-02  2.018088E-02  2.288040E+00                                                                                                                                                                                                                                                                                                                                                                                                                                                                                              
  1.050000E+03  1.250000E+02 -4.725000E+03  1.850654E-07 -2.796021E-18  1.639848E-08 -1.843374E-07  9.794706E-10 -1.496596E-20  9.148968E-11 -9.751883E-10  0.000000E+00  0.000000E+00  0.000000E+00  0.000000E+00  0.000000E+00  0.000000E+00  0.000000E+00  0.000000E+00  2.305064E+00  1.612312E-09  2.024728E-02  2.304975E+00                                                                                                                                                                                                                                                                                                                                                                                                                                                                                              
  1.225000E+03  1.250000E+02 -4.725000E+03  1.886005E-07 -1.099380E-08  1.632794E-08 -1.875704E-07  9.987624E-10 -6.136543E-11  9.110223E-11 -9.927039E-10  0.000000E+00  0.000000E+00  0.000000E+00  0.000000E+00  0.000000E+00  0.000000E+00  0.000000E+00  0.000000E+00  2.288167E+00 -1.319488E-02  2.018088E-02  2.288040E+00                                                                                                                                                                                                                                                                                                                                                                                                                                                                                              
  1.475000E+03  1.250000E+02 -4.725000E+03  1.994985E-07 -1.919375E-08  1.605259E-08 -1.979231E-07  1.058939E-09 -1.071523E-10  8.958897E-11 -1.049688E-09  0.000000E+00  0.000000E+00  0.000000E+00  0.000000E+00  0.000000E+00  0.000000E+00  0.000000E+00  0.000000E+00  2.224471E+00 -2.167164E-02  1.997126E-02  2.224276E+00                                                                                                                                                                                                                                                                                                                                                                                                                                                                                              
  1.725000E+03  1.250000E+02 -4.725000E+03  2.066849E-07 -1.766960E-08  1.479400E-08 -2.053961E-07  1.099010E-09 -9.866268E-11  8.258531E-11 -1.091452E-09  0.000000E+00  0.000000E+00  0.000000E+00  0.000000E+00  0.000000E+00  0.000000E+00  0.000000E+00  0.000000E+00  2.170314E+00 -1.956381E-02  1.819797E-02  2.170149E+00                                                                                                                                                                                                                                                                                                                                                                                                                                                                                              