Title="TOUGHREACT V3.30-OMP flowvector.tec: Liq & Gas Fluxes (kg/s/m^2), Pore Velocities (m/s), & Heat Fluxes (J/s/m2)"                                                                                                                                                                                                                                                                                                                                                                                                                                                                                                                                                                                                                                                                                                         
Variables= "X(m)"     "Y(m)"      "Z(m)"     "FluxLiq"   "FluxLiq_X"   "FluxLiq_Y"   "FluxLiq_Z"   "PorVelLiq"  "PorVelLiqX"  "PorVelLiqY"  "PorVelLiqZ"     "FluxGas"   "FluxGas_X"   "FluxGas_Y"   "FluxGas_Z"   "PorVelGas"  "PorVelGasX"  "PorVelGasY"  "PorVelGasZ"    "HeatFlux"  "HeatFlux_X"  "HeatFlux_Y"  "HeatFlux_Z"                                                                                                                                                                                                                                                                                                                                                                                                                                                                                                
Zone T= "3.15569000E+08 sec" I=     9 J=    10 K=    23 F=Point
  1.250000E+02  1.250000E+02 -5.425000E+03  1.101818E-07  5.567803E-10  5.841962E-10  1.101788E-07  6.352994E-10  3.223927E-12  3.382674E-12  6.352822E-10  0.000000E+00  0.000000E+00  0.000000E+00  0.000000E+00  0.000000E+00  0.000000E+00  0.000000E+00  0.000000E+00  2.108080E-01  5.660758E-04  5.939497E-04  2.108064E-01                                                                                                                                                                                                                                                                                                                                                                                                                                                                                              
  3.750000E+02  1.250000E+02 -5.425000E+03  1.106530E-07  1.346041E-09  7.163438E-10  1.106424E-07  6.380173E-10  7.793994E-12  4.147854E-12  6.379562E-10  0.000000E+00  0.000000E+00  0.000000E+00  0.000000E+00  0.000000E+00  0.000000E+00  0.000000E+00  0.000000E+00  2.112834E-01  1.368509E-03  7.283039E-04  2.112777E-01                                                                                                                                                                                                                                                                                                                                                                                                                                                                                              
  6.250000E+02  1.250000E+02 -5.425000E+03  1.113251E-07  1.364456E-09  8.569596E-10  1.113135E-07  6.418944E-10  7.900631E-12  4.962074E-12  6.418266E-10  0.000000E+00  0.000000E+00  0.000000E+00  0.000000E+00  0.000000E+00  0.000000E+00  0.000000E+00  0.000000E+00  2.119661E-01  1.385913E-03  8.712663E-04  2.119598E-01                                                                                                                                                                                                                                                                                                                                                                                                                                                                                              
  8.750000E+02  1.250000E+02 -5.425000E+03  1.119274E-07  4.869006E-10  9.281515E-10  1.119225E-07  6.453680E-10  2.819306E-12  5.374307E-12  6.453394E-10  0.000000E+00  0.000000E+00  0.000000E+00  0.000000E+00  0.000000E+00  0.000000E+00  0.000000E+00  0.000000E+00  2.125828E-01  2.300169E-04  9.436468E-04  2.125806E-01                                                                                                                                                                                                                                                                                                                                                                                                                                                                                              
  1.050000E+03  1.250000E+02 -5.425000E+03  1.121874E-07  4.131040E-16  9.358891E-10  1.121835E-07  6.468742E-10  2.392064E-18  5.419232E-12  6.468515E-10  0.000000E+00  0.000000E+00  0.000000E+00  0.000000E+00  0.000000E+00  0.000000E+00  0.000000E+00  0.000000E+00  2.130862E-01 -8.349611E-10  9.515904E-04  2.130840E-01                                                                                                                                                                                                                                                                                                                                                                                                                                                                                              
  1.225000E+03  1.250000E+02 -5.425000E+03  1.119274E-07 -4.869002E-10  9.281515E-10  1.119225E-07  6.453680E-10 -2.819304E-12  5.374307E-12  6.453394E-10  0.000000E+00  0.000000E+00  0.000000E+00  0.000000E+00  0.000000E+00  0.000000E+00  0.000000E+00  0.000000E+00  2.125828E-01 -2.300165E-04  9.436468E-04  2.125806E-01                                                                                                                                                                                                                                                                                                                                                                                                                                                                                              
  1.475000E+03  1.250000E+02 -5.425000E+03  1.113251E-07 -1.364455E-09  8.569597E-10  1.113135E-07  6.418944E-10 -7.900630E-12  4.962074E-12  6.418266E-10  0.000000E+00  0.000000E+00  0.000000E+00  0.000000E+00  0.000000E+00  0.000000E+00  0.000000E+00  0.000000E+00  2.119661E-01 -1.385911E-03  8.712661E-04  2.119598E-01                                                                                                                                                                                                                                                                                                                                                                                                                                                                                              
  1.725000E+03  1.250000E+02 -5.425000E+03  1.106530E-07 -1.346041E-09  7.163440E-10  1.106424E-07  6.380173E-10 -7.793993E-12  4.147855E-12  6.379562E-10  0.000000E+00  0.000000E+00  0.000000E+00  0.000000E+00  0.000000E+00  0.000000E+00  0.000000E+00  0.000000E+00  2.112834E-01 -1.368509E-03  7.283028E-04  2.112777E-01                                                                                                                                                                                                                                                                                                                                                                                                                                                                                              
  1.975000E+03  1.250000E+02 -5.425000E+03  1.101818E-07 -5.567801E-10  5.841962E-10  1.101788E-07  6.352994E-10 -3.223926E-12  3.382674E-12  6.352822E-10  0.000000E+00  0.000000E+00  0.000000E+00  0.000000E+00  0.000000E+00  0.000000E+00  0.000000E+00  0.000000E+00  2.108080E-01 -5.660762E-04  5.939497E-04  2.108064E-01                                                                                                                                                                                                                                                                                                                                                                                                                                                                                              
  1.250000E+02  1.250000E+02 -5.225000E+03  3.509999E-07  9.072174E-10  1.124503E-09  3.509969E-07  2.009946E-09  5.205191E-12  6.451874E-12  2.009929E-09  0.000000E+00  0.000000E+00  0.000000E+00  0.000000E+00  0.000000E+00  0.000000E+00  0.000000E+00  0.000000E+00  5.467196E-01  8.904789E-04  1.103768E-03  5.467177E-01                                                                                                                                                                                                                                                                                                                                                                                                                                                                                              
  3.750000E+02  1.250000E+02 -5.225000E+03  3.529942E-07  2.204048E-09  1.384565E-09  3.529846E-07  2.021362E-09  1.264582E-11  7.944006E-12  2.021307E-09  0.000000E+00  0.000000E+00  0.000000E+00  0.000000E+00  0.000000E+00  0.000000E+00  0.000000E+00  0.000000E+00  5.486935E-01  2.163372E-03  1.359031E-03  5.486875E-01                                                                                                                                                                                                                                                                                                                                                                                                                                                                                              
  6.250000E+02  1.250000E+02 -5.225000E+03  3.558405E-07  2.335407E-09  1.645323E-09  3.558291E-07  2.037655E-09  1.339953E-11  9.440154E-12  2.037589E-09  0.000000E+00  0.000000E+00  0.000000E+00  0.000000E+00  0.000000E+00  0.000000E+00  0.000000E+00  0.000000E+00  5.515131E-01  2.292269E-03  1.614976E-03  5.515060E-01                                                                                                                                                                                                                                                                                                                                                                                                                                                                                              
  8.750000E+02  1.250000E+02 -5.225000E+03  3.584029E-07  1.198167E-09  1.763605E-09  3.583965E-07  2.052322E-09  6.874565E-12  1.011884E-11  2.052285E-09  0.000000E+00  0.000000E+00  0.000000E+00  0.000000E+00  0.000000E+00  0.000000E+00  0.000000E+00  0.000000E+00  5.540575E-01  1.174182E-03  1.731077E-03  5.540536E-01                                                                                                                                                                                                                                                                                                                                                                                                                                                                                              
  1.050000E+03  1.250000E+02 -5.225000E+03  3.589538E-07  1.281916E-16  1.774960E-09  3.589494E-07  2.055489E-09  7.355105E-19  1.018399E-11  2.055464E-09  0.000000E+00  0.000000E+00  0.000000E+00  0.000000E+00  0.000000E+00  0.000000E+00  0.000000E+00  0.000000E+00  5.548490E-01  1.417303E-10  1.742225E-03  5.548463E-01                                                                                                                                                                                                                                                                                                                                                                                                                                                                                              
  1.225000E+03  1.250000E+02 -5.225000E+03  3.584029E-07 -1.198166E-09  1.763605E-09  3.583965E-07  2.052322E-09 -6.874563E-12  1.011884E-11  2.052285E-09  0.000000E+00  0.000000E+00  0.000000E+00  0.000000E+00  0.000000E+00  0.000000E+00  0.000000E+00  0.000000E+00  5.540575E-01 -1.174181E-03  1.731077E-03  5.540536E-01                                                                                                                                                                                                                                                                                                                                                                                                                                                                                              
  1.475000E+03  1.250000E+02 -5.225000E+03  3.558405E-07 -2.335407E-09  1.645323E-09  3.558291E-07  2.037655E-09 -1.339953E-11  9.440154E-12  2.037589E-09  0.000000E+00  0.000000E+00  0.000000E+00  0.000000E+00  0.000000E+00  0.000000E+00  0.000000E+00  0.000000E+00  5.515131E-01 -2.292269E-03  1.614976E-03  5.515060E-01                                                                                                                                                                                                                                                                                                                                                                                                                                                                                              
  1.725000E+03  1.250000E+02 -5.225000E+03  3.529942E-07 -2.204048E-09  1.384564E-09  3.529846E-07  2.021362E-09 -1.264582E-11  7.944006E-12  2.021307E-09  0.000000E+00  0.000000E+00  0.000000E+00  0.000000E+00  0.000000E+00  0.000000E+00  0.000000E+00  0.000000E+00  5.486935E-01 -2.163372E-03  1.359031E-03  5.486875E-01                                                                                                                                                                                                                                                                                                                                                                                                                                                                                              
  1.975000E+03  1.250000E+02 -5.225000E+03  3.509999E-07 -9.072173E-10  1.124503E-09  3.509969E-07  2.009946E-09 -5.205190E-12  6.451874E-12  2.009929E-09  0.000000E+00  0.000000E+00  0.000000E+00  0.000000E+00  0.000000E+00  0.000000E+00  0.000000E+00  0.000000E+00  5.467196E-01 -8.904789E-04  1.103768E-03  5.467177E-01                                                                                                                                                                                                                                                                                                                                                                                                                                                                                              
  1.250000E+02  1.250000E+02 -4.975000E+03  4.467111E-07  2.356277E-09  3.550716E-09  4.466908E-07  2.537173E-09  1.337519E-11  2.015532E-11  2.537057E-09  0.000000E+00  0.000000E+00  0.000000E+00  0.000000E+00  0.000000E+00  0.000000E+00  0.000000E+00  0.000000E+00  6.352926E-01  2.211363E-03  3.332539E-03  6.352800E-01                                                                                                                                                                                                                                                                                                                                                                                                                                                                                              
  3.750000E+02  1.250000E+02 -4.975000E+03  4.516807E-07  5.719243E-09  4.489273E-09  4.516221E-07  2.565291E-09  3.246487E-11  2.548311E-11  2.564959E-09  0.000000E+00  0.000000E+00  0.000000E+00  0.000000E+00  0.000000E+00  0.000000E+00  0.000000E+00  0.000000E+00  6.407354E-01  5.367054E-03  4.214756E-03  6.406991E-01                                                                                                                                                                                                                                                                                                                                                                                                                                                                                              
  6.250000E+02  1.250000E+02 -4.975000E+03  4.586593E-07  6.267268E-09  5.352385E-09  4.585853E-07  2.604784E-09  3.557594E-11  3.038279E-11  2.604364E-09  0.000000E+00  0.000000E+00  0.000000E+00  0.000000E+00  0.000000E+00  0.000000E+00  0.000000E+00  0.000000E+00  6.482749E-01  5.882735E-03  5.025878E-03  6.482287E-01                                                                                                                                                                                                                                                                                                                                                                                                                                                                                              
  8.750000E+02  1.250000E+02 -4.975000E+03  4.656172E-07  3.462562E-09  5.678907E-09  4.655697E-07  2.644121E-09  1.965523E-11  3.223653E-11  2.643852E-09  0.000000E+00  0.000000E+00  0.000000E+00  0.000000E+00  0.000000E+00  0.000000E+00  0.000000E+00  0.000000E+00  6.560703E-01  3.252280E-03  5.333584E-03  6.560406E-01                                                                                                                                                                                                                                                                                                                                                                                                                                                                                              
  1.050000E+03  1.250000E+02 -4.975000E+03  4.667897E-07  4.110543E-17  5.697749E-09  4.667549E-07  2.650738E-09  2.334210E-19  3.234352E-11  2.650541E-09  0.000000E+00  0.000000E+00  0.000000E+00  0.000000E+00  0.000000E+00  0.000000E+00  0.000000E+00  0.000000E+00  6.575062E-01  7.276929E-10  5.351857E-03  6.574844E-01                                                                                                                                                                                                                                                                                                                                                                                                                                                                                              
  1.225000E+03  1.250000E+02 -4.975000E+03  4.656172E-07 -3.462562E-09  5.678907E-09  4.655697E-07  2.644121E-09 -1.965523E-11  3.223653E-11  2.643852E-09  0.000000E+00  0.000000E+00  0.000000E+00  0.000000E+00  0.000000E+00  0.000000E+00  0.000000E+00  0.000000E+00  6.560703E-01 -3.252280E-03  5.333584E-03  6.560406E-01                                                                                                                                                                                                                                                                                                                                                                                                                                                                                              
  1.475000E+03  1.250000E+02 -4.975000E+03  4.586593E-07 -6.267268E-09  5.352385E-09  4.585853E-07  2.604784E-09 -3.557594E-11  3.038279E-11  2.604364E-09  0.000000E+00  0.000000E+00  0.000000E+00  0.000000E+00  0.000000E+00  0.000000E+00  0.000000E+00  0.000000E+00  6.482749E-01 -5.882735E-03  5.025878E-03  6.482287E-01                                                                                                                                                                                                                                                                                                                                                                                                                                                                                              
  1.725000E+03  1.250000E+02 -4.975000E+03  4.516807E-07 -5.719242E-09  4.489273E-09  4.516221E-07  2.565291E-09 -3.246487E-11  2.548311E-11  2.564959E-09  0.000000E+00  0.000000E+00  0.000000E+00  0.000000E+00  0.000000E+00  0.000000E+00  0.000000E+00  0.000000E+00  6.407354E-01 -5.367054E-03  4.214756E-03  6.406991E-01                                                                                                                                                                                                                                                                                                                                                                                                                                                                                              
  1.975000E+03  1.250000E+02 -4.975000E+03  4.467111E-07 -2.356277E-09  3.550716E-09  4.466908E-07  2.537173E-09 -1.337519E-11  2.015532E-11  2.537057E-09  0.000000E+00  0.000000E+00  0.000000E+00  0.000000E+00  0.000000E+00  0.000000E+00  0.000000E+00  0.000000E+00  6.352926E-01 -2.211363E-03  3.332539E-03  6.352800E-01                                                                                                                                                                                                                                                                                                                                                                                                                                                                                              
  1.250000E+02  1.250000E+02 -4.725000E+03  9.742867E-08  5.658279E-09  1.031852E-08  9.671534E-08  5.829562E-10  3.176271E-11  5.792100E-11  5.792014E-10  0.000000E+00  0.000000E+00  0.000000E+00  0.000000E+00  0.000000E+00  0.000000E+00  0.000000E+00  0.000000E+00  1.954469E+00  5.768184E-03  1.052813E-02  1.954432E+00                                                                                                                                                                                                                                                                                                                                                                                                                                                                                              
  3.750000E+02  1.250000E+02 -4.725000E+03  1.014950E-07  1.364204E-08  1.382125E-08  9.961979E-08  6.065770E-10  7.657623E-11  7.757529E-11  5.967025E-10  0.000000E+00  0.000000E+00  0.000000E+00  0.000000E+00  0.000000E+00  0.000000E+00  0.000000E+00  0.000000E+00  2.042645E+00  1.378213E-02  1.428276E-02  2.042549E+00                                                                                                                                                                                                                                                                                                                                                                                                                                                                                              
  6.250000E+02  1.250000E+02 -4.725000E+03  1.070510E-07  1.578767E-08  1.675675E-08  1.045461E-07  6.387610E-10  8.861350E-11  9.404190E-11  6.255552E-10  0.000000E+00  0.000000E+00  0.000000E+00  0.000000E+00  0.000000E+00  0.000000E+00  0.000000E+00  0.000000E+00  2.149788E+00  1.613650E-02  1.736374E-02  2.149658E+00                                                                                                                                                                                                                                                                                                                                                                                                                                                                                              
  8.750000E+02  1.250000E+02 -4.725000E+03  1.150847E-07  9.633771E-09  1.766556E-08  1.133120E-07  6.843826E-10  5.406960E-11  9.913046E-11  6.750031E-10  0.000000E+00  0.000000E+00  0.000000E+00  0.000000E+00  0.000000E+00  0.000000E+00  0.000000E+00  0.000000E+00  2.279582E+00  1.020493E-02  1.840932E-02  2.279485E+00                                                                                                                                                                                                                                                                                                                                                                                                                                                                                              
  1.050000E+03  1.250000E+02 -4.725000E+03  1.178950E-07  3.873260E-18  1.761722E-08  1.165713E-07  6.999021E-10  2.244379E-20  9.885575E-11  6.928856E-10  0.000000E+00  0.000000E+00  0.000000E+00  0.000000E+00  0.000000E+00  0.000000E+00  0.000000E+00  0.000000E+00  2.312781E+00  1.854127E-09  1.842874E-02  2.312708E+00                                                                                                                                                                                                                                                                                                                                                                                                                                                                                              
  1.225000E+03  1.250000E+02 -4.725000E+03  1.150847E-07 -9.633771E-09  1.766556E-08  1.133120E-07  6.843826E-10 -5.406960E-11  9.913046E-11  6.750031E-10  0.000000E+00  0.000000E+00  0.000000E+00  0.000000E+00  0.000000E+00  0.000000E+00  0.000000E+00  0.000000E+00  2.279582E+00 -1.020493E-02  1.840932E-02  2.279485E+00                                                                                                                                                                                                                                                                                                                                                                                                                                                                                              
  1.475000E+03  1.250000E+02 -4.725000E+03  1.070510E-07 -1.578767E-08  1.675675E-08  1.045461E-07  6.387610E-10 -8.861350E-11  9.404189E-11  6.255552E-10  0.000000E+00  0.000000E+00  0.000000E+00  0.000000E+00  0.000000E+00  0.000000E+00  0.000000E+00  0.000000E+00  2.149788E+00 -1.613650E-02  1.736374E-02  2.149658E+00                                                                                                                                                                                                                                                                                                                                                                                                                                                                                              
  1.725000E+03  1.250000E+02 -4.725000E+03  1.014950E-07 -1.364204E-08  1.382125E-08  9.961979E-08  6.065770E-10 -7.657623E-11  7.757529E-11  5.967025E-10  0.000000E+00  0.000000E+00  0.000000E+00  0.000000E+00  0.000000E+00  0.000000E+00  0.000000E+00  0.000000E+00  2.042645E+00 -1.378213E-02  1.428276E-02  2.042549E+00                                                                                                                                                                                                                                                                                                                                                                                                                                                                                              