Title="TOUGHREACT V3.30-OMP flowvector.tec: Liq & Gas Fluxes (kg/s/m^2), Pore Velocities (m/s), & Heat Fluxes (J/s/m2)"                                                                                                                                                                                                                                                                                                                                                                                                                                                                                                                                                                                                                                                                                                         
Variables= "X(m)"     "Y(m)"      "Z(m)"     "FluxLiq"   "FluxLiq_X"   "FluxLiq_Y"   "FluxLiq_Z"   "PorVelLiq"  "PorVelLiqX"  "PorVelLiqY"  "PorVelLiqZ"     "FluxGas"   "FluxGas_X"   "FluxGas_Y"   "FluxGas_Z"   "PorVelGas"  "PorVelGasX"  "PorVelGasY"  "PorVelGasZ"    "HeatFlux"  "HeatFlux_X"  "HeatFlux_Y"  "HeatFlux_Z"                                                                                                                                                                                                                                                                                                                                                                                                                                                                                                
Zone T= "1.00000000E+10 sec" I=     9 J=    10 K=    23 F=Point
  1.250000E+02  1.250000E+02 -5.425000E+03  5.612066E-10  6.505987E-11 -1.798790E-15 -5.574227E-10  3.315345E-12  3.857534E-13 -1.066527E-17 -3.292826E-12  0.000000E+00  0.000000E+00  0.000000E+00  0.000000E+00  0.000000E+00  0.000000E+00  0.000000E+00  0.000000E+00  6.641609E-02 -1.212188E-04 -2.786838E-10  6.641598E-02                                                                                                                                                                                                                                                                                                                                                                                                                                                                                              
  3.750000E+02  1.250000E+02 -5.425000E+03  5.897568E-10  1.955162E-10 -3.643585E-15 -5.564050E-10  3.485331E-12  1.159288E-12 -2.160381E-17 -3.286881E-12  0.000000E+00  0.000000E+00  0.000000E+00  0.000000E+00  0.000000E+00  0.000000E+00  0.000000E+00  0.000000E+00  6.646583E-02 -4.683241E-04 -2.692352E-09  6.646418E-02                                                                                                                                                                                                                                                                                                                                                                                                                                                                                              
  6.250000E+02  1.250000E+02 -5.425000E+03  6.260933E-10  3.092643E-10 -7.768434E-16 -5.443789E-10  3.702123E-12  1.833871E-12 -4.606386E-18 -3.215997E-12  0.000000E+00  0.000000E+00  0.000000E+00  0.000000E+00  0.000000E+00  0.000000E+00  0.000000E+00  0.000000E+00  6.666467E-02 -1.270565E-03 -1.949141E-09  6.665256E-02                                                                                                                                                                                                                                                                                                                                                                                                                                                                                              
  8.750000E+02  1.250000E+02 -5.425000E+03  5.529400E-10  2.877467E-10 -6.872388E-16 -4.721700E-10  3.270234E-12  1.706471E-12 -4.075614E-18 -2.789693E-12  0.000000E+00  0.000000E+00  0.000000E+00  0.000000E+00  0.000000E+00  0.000000E+00  0.000000E+00  0.000000E+00  6.752016E-02 -3.727329E-03 -1.315812E-09  6.741720E-02                                                                                                                                                                                                                                                                                                                                                                                                                                                                                              
  1.050000E+03  1.250000E+02 -5.425000E+03  1.875015E-10  7.513569E-16  8.807495E-16 -1.875015E-10  1.107963E-12  4.456347E-18  5.224517E-18 -1.107963E-12  0.000000E+00  0.000000E+00  0.000000E+00  0.000000E+00  0.000000E+00  0.000000E+00  0.000000E+00  0.000000E+00  6.987417E-02 -2.276298E-09  1.123724E-09  6.987417E-02                                                                                                                                                                                                                                                                                                                                                                                                                                                                                              
  1.225000E+03  1.250000E+02 -5.425000E+03  5.529312E-10 -2.877388E-10  3.051121E-15 -4.721645E-10  3.270182E-12 -1.706424E-12  1.809443E-17 -2.789660E-12  0.000000E+00  0.000000E+00  0.000000E+00  0.000000E+00  0.000000E+00  0.000000E+00  0.000000E+00  0.000000E+00  6.752017E-02  3.727330E-03  3.286588E-09  6.741721E-02                                                                                                                                                                                                                                                                                                                                                                                                                                                                                              
  1.475000E+03  1.250000E+02 -5.425000E+03  6.260871E-10 -3.092580E-10  7.182098E-16 -5.443754E-10  3.702087E-12 -1.833833E-12  4.258711E-18 -3.215976E-12  0.000000E+00  0.000000E+00  0.000000E+00  0.000000E+00  0.000000E+00  0.000000E+00  0.000000E+00  0.000000E+00  6.666468E-02  1.270565E-03  2.782262E-10  6.665257E-02                                                                                                                                                                                                                                                                                                                                                                                                                                                                                              
  1.725000E+03  1.250000E+02 -5.425000E+03  5.897537E-10 -1.955178E-10  6.145280E-16 -5.564012E-10  3.485313E-12 -1.159297E-12  3.643704E-18 -3.286858E-12  0.000000E+00  0.000000E+00  0.000000E+00  0.000000E+00  0.000000E+00  0.000000E+00  0.000000E+00  0.000000E+00  6.646583E-02  4.683196E-04 -1.090565E-09  6.646418E-02                                                                                                                                                                                                                                                                                                                                                                                                                                                                                              
  1.975000E+03  1.250000E+02 -5.425000E+03  5.612030E-10 -6.506067E-11  1.681465E-15 -5.574189E-10  3.315323E-12 -3.857581E-13  9.969636E-18 -3.292804E-12  0.000000E+00  0.000000E+00  0.000000E+00  0.000000E+00  0.000000E+00  0.000000E+00  0.000000E+00  0.000000E+00  6.641609E-02  1.212178E-04  1.587447E-09  6.641598E-02                                                                                                                                                                                                                                                                                                                                                                                                                                                                                              
  1.250000E+02  1.250000E+02 -5.225000E+03  1.919182E-09  1.838069E-11 -1.667319E-15 -1.919094E-09  1.127463E-11  1.082911E-13 -9.823040E-18 -1.127411E-11  0.000000E+00  0.000000E+00  0.000000E+00  0.000000E+00  0.000000E+00  0.000000E+00  0.000000E+00  0.000000E+00  1.428700E-01 -1.296073E-04 -1.968775E-09  1.428699E-01                                                                                                                                                                                                                                                                                                                                                                                                                                                                                              
  3.750000E+02  1.250000E+02 -5.225000E+03  1.903763E-09  4.323912E-11 -2.392847E-16 -1.903272E-09  1.118440E-11  2.547505E-13 -1.409775E-18 -1.118150E-11  0.000000E+00  0.000000E+00  0.000000E+00  0.000000E+00  0.000000E+00  0.000000E+00  0.000000E+00  0.000000E+00  1.429947E-01 -4.392735E-04 -3.532332E-10  1.429941E-01                                                                                                                                                                                                                                                                                                                                                                                                                                                                                              
  6.250000E+02  1.250000E+02 -5.225000E+03  1.849033E-09  2.856015E-11 -1.330681E-15 -1.848812E-09  1.086342E-11  1.682701E-13 -7.840179E-18 -1.086212E-11  0.000000E+00  0.000000E+00  0.000000E+00  0.000000E+00  0.000000E+00  0.000000E+00  0.000000E+00  0.000000E+00  1.433883E-01 -8.483766E-04 -2.568914E-09  1.433858E-01                                                                                                                                                                                                                                                                                                                                                                                                                                                                                              
  8.750000E+02  1.250000E+02 -5.225000E+03  1.685002E-09 -3.131958E-11 -9.314114E-16 -1.684710E-09  9.899210E-12 -1.845466E-13 -5.488099E-18 -9.897490E-12  0.000000E+00  0.000000E+00  0.000000E+00  0.000000E+00  0.000000E+00  0.000000E+00  0.000000E+00  0.000000E+00  1.445710E-01 -9.862192E-04 -9.806654E-10  1.445676E-01                                                                                                                                                                                                                                                                                                                                                                                                                                                                                              
  1.050000E+03  1.250000E+02 -5.225000E+03  1.329023E-09  6.272166E-15  2.568838E-16 -1.329023E-09  7.799589E-12  3.695775E-17  1.513673E-18 -7.799589E-12  0.000000E+00  0.000000E+00  0.000000E+00  0.000000E+00  0.000000E+00  0.000000E+00  0.000000E+00  0.000000E+00  1.473316E-01  3.371979E-09 -1.713637E-11  1.473316E-01                                                                                                                                                                                                                                                                                                                                                                                                                                                                                              
  1.225000E+03  1.250000E+02 -5.225000E+03  1.684999E-09  3.133040E-11 -2.012233E-15 -1.684708E-09  9.899197E-12  1.846104E-13 -1.185656E-17 -9.897476E-12  0.000000E+00  0.000000E+00  0.000000E+00  0.000000E+00  0.000000E+00  0.000000E+00  0.000000E+00  0.000000E+00  1.445710E-01  9.862243E-04 -2.062464E-09  1.445676E-01                                                                                                                                                                                                                                                                                                                                                                                                                                                                                              
  1.475000E+03  1.250000E+02 -5.225000E+03  1.849034E-09 -2.855736E-11 -3.102617E-15 -1.848813E-09  1.086343E-11 -1.682537E-13 -1.828018E-17 -1.086212E-11  0.000000E+00  0.000000E+00  0.000000E+00  0.000000E+00  0.000000E+00  0.000000E+00  0.000000E+00  0.000000E+00  1.433883E-01  8.483705E-04 -4.961417E-09  1.433858E-01                                                                                                                                                                                                                                                                                                                                                                                                                                                                                              
  1.725000E+03  1.250000E+02 -5.225000E+03  1.903757E-09 -4.324185E-11  5.198789E-16 -1.903266E-09  1.118436E-11 -2.547666E-13  3.062929E-18 -1.118146E-11  0.000000E+00  0.000000E+00  0.000000E+00  0.000000E+00  0.000000E+00  0.000000E+00  0.000000E+00  0.000000E+00  1.429947E-01  4.392638E-04  5.600579E-10  1.429941E-01                                                                                                                                                                                                                                                                                                                                                                                                                                                                                              
  1.975000E+03  1.250000E+02 -5.225000E+03  1.919176E-09 -1.838166E-11 -6.634301E-16 -1.919088E-09  1.127459E-11 -1.082968E-13 -3.908609E-18 -1.127407E-11  0.000000E+00  0.000000E+00  0.000000E+00  0.000000E+00  0.000000E+00  0.000000E+00  0.000000E+00  0.000000E+00  1.428700E-01  1.296055E-04 -7.292012E-10  1.428699E-01                                                                                                                                                                                                                                                                                                                                                                                                                                                                                              
  1.250000E+02  1.250000E+02 -4.975000E+03  3.308432E-09 -6.291735E-12 -4.443003E-17 -3.308426E-09  1.928607E-11 -3.673488E-14 -2.594076E-19 -1.928603E-11  0.000000E+00  0.000000E+00  0.000000E+00  0.000000E+00  0.000000E+00  0.000000E+00  0.000000E+00  0.000000E+00  1.608990E-01 -9.061384E-05  5.826670E-10  1.608989E-01                                                                                                                                                                                                                                                                                                                                                                                                                                                                                              
  3.750000E+02  1.250000E+02 -4.975000E+03  3.272127E-09 -2.419610E-11  7.578602E-16 -3.272038E-09  1.907464E-11 -1.412727E-13  4.424860E-18 -1.907412E-11  0.000000E+00  0.000000E+00  0.000000E+00  0.000000E+00  0.000000E+00  0.000000E+00  0.000000E+00  0.000000E+00  1.610376E-01 -2.761950E-04  2.075818E-09  1.610374E-01                                                                                                                                                                                                                                                                                                                                                                                                                                                                                              
  6.250000E+02  1.250000E+02 -4.975000E+03  3.183689E-09 -4.912598E-11 -1.206989E-15 -3.183310E-09  1.855916E-11 -2.868348E-13 -7.047294E-18 -1.855694E-11  0.000000E+00  0.000000E+00  0.000000E+00  0.000000E+00  0.000000E+00  0.000000E+00  0.000000E+00  0.000000E+00  1.613758E-01 -4.240432E-04  3.553277E-10  1.613753E-01                                                                                                                                                                                                                                                                                                                                                                                                                                                                                              
  8.750000E+02  1.250000E+02 -4.975000E+03  3.028442E-09 -4.548524E-11  7.466644E-16 -3.028100E-09  1.765311E-11 -2.655808E-13  4.359683E-18 -1.765111E-11  0.000000E+00  0.000000E+00  0.000000E+00  0.000000E+00  0.000000E+00  0.000000E+00  0.000000E+00  0.000000E+00  1.619793E-01 -3.204556E-04  4.038721E-10  1.619790E-01                                                                                                                                                                                                                                                                                                                                                                                                                                                                                              
  1.050000E+03  1.250000E+02 -4.975000E+03  2.940214E-09  4.214038E-16  3.536340E-16 -2.940214E-09  1.713702E-11  2.460547E-18  2.064838E-18 -1.713702E-11  0.000000E+00  0.000000E+00  0.000000E+00  0.000000E+00  0.000000E+00  0.000000E+00  0.000000E+00  0.000000E+00  1.623369E-01 -3.644205E-09  2.294488E-10  1.623369E-01                                                                                                                                                                                                                                                                                                                                                                                                                                                                                              
  1.225000E+03  1.250000E+02 -4.975000E+03  3.028444E-09  4.548789E-11  1.960468E-16 -3.028102E-09  1.765312E-11  2.655963E-13  1.144693E-18 -1.765112E-11  0.000000E+00  0.000000E+00  0.000000E+00  0.000000E+00  0.000000E+00  0.000000E+00  0.000000E+00  0.000000E+00  1.619793E-01  3.204515E-04  4.140219E-10  1.619790E-01                                                                                                                                                                                                                                                                                                                                                                                                                                                                                              
  1.475000E+03  1.250000E+02 -4.975000E+03  3.183693E-09  4.913171E-11  6.084851E-16 -3.183314E-09  1.855918E-11  2.868683E-13  3.552785E-18 -1.855697E-11  0.000000E+00  0.000000E+00  0.000000E+00  0.000000E+00  0.000000E+00  0.000000E+00  0.000000E+00  0.000000E+00  1.613758E-01  4.240419E-04 -7.883709E-11  1.613753E-01                                                                                                                                                                                                                                                                                                                                                                                                                                                                                              
  1.725000E+03  1.250000E+02 -4.975000E+03  3.272125E-09  2.419852E-11 -5.786544E-16 -3.272035E-09  1.907462E-11  1.412869E-13 -3.378545E-18 -1.907410E-11  0.000000E+00  0.000000E+00  0.000000E+00  0.000000E+00  0.000000E+00  0.000000E+00  0.000000E+00  0.000000E+00  1.610376E-01  2.761901E-04 -2.828359E-10  1.610374E-01                                                                                                                                                                                                                                                                                                                                                                                                                                                                                              
  1.975000E+03  1.250000E+02 -4.975000E+03  3.308426E-09  6.290663E-12 -1.328343E-15 -3.308420E-09  1.928604E-11  3.672862E-14 -7.755621E-18 -1.928600E-11  0.000000E+00  0.000000E+00  0.000000E+00  0.000000E+00  0.000000E+00  0.000000E+00  0.000000E+00  0.000000E+00  1.608990E-01  9.060974E-05 -6.170751E-10  1.608989E-01                                                                                                                                                                                                                                                                                                                                                                                                                                                                                              
  1.250000E+02  1.250000E+02 -4.725000E+03  4.264767E-09 -4.698877E-12  2.797579E-17 -4.264765E-09  2.465591E-11 -2.716991E-14  1.617616E-19 -2.465589E-11  0.000000E+00  0.000000E+00  0.000000E+00  0.000000E+00  0.000000E+00  0.000000E+00  0.000000E+00  0.000000E+00  1.744496E-01 -4.553999E-05  2.927807E-10  1.744496E-01                                                                                                                                                                                                                                                                                                                                                                                                                                                                                              
  3.750000E+02  1.250000E+02 -4.725000E+03  4.219886E-09 -1.487166E-11  2.562208E-16 -4.219860E-09  2.439652E-11 -8.599150E-14  1.481527E-18 -2.439636E-11  0.000000E+00  0.000000E+00  0.000000E+00  0.000000E+00  0.000000E+00  0.000000E+00  0.000000E+00  0.000000E+00  1.745556E-01 -1.298639E-04  8.910389E-10  1.745556E-01                                                                                                                                                                                                                                                                                                                                                                                                                                                                                              
  6.250000E+02  1.250000E+02 -4.725000E+03  4.128362E-09 -2.336232E-11 -2.902024E-16 -4.128296E-09  2.386741E-11 -1.350875E-13 -1.678030E-18 -2.386703E-11  0.000000E+00  0.000000E+00  0.000000E+00  0.000000E+00  0.000000E+00  0.000000E+00  0.000000E+00  0.000000E+00  1.747742E-01 -1.749906E-04  5.812481E-10  1.747742E-01                                                                                                                                                                                                                                                                                                                                                                                                                                                                                              
  8.750000E+02  1.250000E+02 -4.725000E+03  4.013194E-09 -1.676076E-11 -2.479351E-16 -4.013159E-09  2.320134E-11 -9.691584E-14 -1.433642E-18 -2.320113E-11  0.000000E+00  0.000000E+00  0.000000E+00  0.000000E+00  0.000000E+00  0.000000E+00  0.000000E+00  0.000000E+00  1.750564E-01 -1.112431E-04  3.049656E-10  1.750564E-01                                                                                                                                                                                                                                                                                                                                                                                                                                                                                              
  1.050000E+03  1.250000E+02 -4.725000E+03  3.987519E-09  6.773635E-16 -4.250950E-16 -3.987519E-09  2.305270E-11  3.916743E-18 -2.458041E-18 -2.305270E-11  0.000000E+00  0.000000E+00  0.000000E+00  0.000000E+00  0.000000E+00  0.000000E+00  0.000000E+00  0.000000E+00  1.751236E-01 -3.063715E-09 -2.008843E-10  1.751236E-01                                                                                                                                                                                                                                                                                                                                                                                                                                                                                              
  1.225000E+03  1.250000E+02 -4.725000E+03  4.013193E-09  1.676176E-11 -4.845294E-16 -4.013158E-09  2.320133E-11  9.692163E-14 -2.801708E-18 -2.320113E-11  0.000000E+00  0.000000E+00  0.000000E+00  0.000000E+00  0.000000E+00  0.000000E+00  0.000000E+00  0.000000E+00  1.750564E-01  1.112359E-04 -1.177440E-09  1.750564E-01                                                                                                                                                                                                                                                                                                                                                                                                                                                                                              
  1.475000E+03  1.250000E+02 -4.725000E+03  4.128360E-09  2.336484E-11 -6.777158E-17 -4.128294E-09  2.386740E-11  1.351020E-13 -3.918740E-19 -2.386702E-11  0.000000E+00  0.000000E+00  0.000000E+00  0.000000E+00  0.000000E+00  0.000000E+00  0.000000E+00  0.000000E+00  1.747742E-01  1.749850E-04 -2.437902E-10  1.747741E-01                                                                                                                                                                                                                                                                                                                                                                                                                                                                                              
  1.725000E+03  1.250000E+02 -4.725000E+03  4.219887E-09  1.487391E-11 -6.210810E-16 -4.219861E-09  2.439652E-11  8.600447E-14 -3.591231E-18 -2.439637E-11  0.000000E+00  0.000000E+00  0.000000E+00  0.000000E+00  0.000000E+00  0.000000E+00  0.000000E+00  0.000000E+00  1.745556E-01  1.298576E-04 -1.030301E-09  1.745556E-01                                                                                                                                                                                                                                                                                                                                                                                                                                                                                              