Title="TOUGHREACT V3.30-OMP flowvector.tec: Liq & Gas Fluxes (kg/s/m^2), Pore Velocities (m/s), & Heat Fluxes (J/s/m2)"                                                                                                                                                                                                                                                                                                                                                                                                                                                                                                                                                                                                                                                                                                         
Variables= "X(m)"     "Y(m)"      "Z(m)"     "FluxLiq"   "FluxLiq_X"   "FluxLiq_Y"   "FluxLiq_Z"   "PorVelLiq"  "PorVelLiqX"  "PorVelLiqY"  "PorVelLiqZ"     "FluxGas"   "FluxGas_X"   "FluxGas_Y"   "FluxGas_Z"   "PorVelGas"  "PorVelGasX"  "PorVelGasY"  "PorVelGasZ"    "HeatFlux"  "HeatFlux_X"  "HeatFlux_Y"  "HeatFlux_Z"                                                                                                                                                                                                                                                                                                                                                                                                                                                                                                
Zone T= "3.15569000E+08 sec" I=     9 J=    10 K=    23 F=Point
  1.250000E+02  1.250000E+02 -5.425000E+03  5.534373E-10  6.174906E-11 -2.286554E-15 -5.499817E-10  3.270661E-12  3.662676E-13 -1.356266E-17 -3.250088E-12  0.000000E+00  0.000000E+00  0.000000E+00  0.000000E+00  0.000000E+00  0.000000E+00  0.000000E+00  0.000000E+00  6.673014E-02 -1.157226E-04 -2.887179E-09  6.673004E-02                                                                                                                                                                                                                                                                                                                                                                                                                                                                                              
  3.750000E+02  1.250000E+02 -5.425000E+03  5.808035E-10  1.873681E-10  1.105366E-15 -5.497507E-10  3.433635E-12  1.111413E-12  6.556605E-18 -3.248786E-12  0.000000E+00  0.000000E+00  0.000000E+00  0.000000E+00  0.000000E+00  0.000000E+00  0.000000E+00  0.000000E+00  6.677826E-02 -4.543854E-04  3.502299E-10  6.677671E-02                                                                                                                                                                                                                                                                                                                                                                                                                                                                                              
  6.250000E+02  1.250000E+02 -5.425000E+03  6.171684E-10  3.007589E-10  3.564642E-15 -5.389257E-10  3.650638E-12  1.784137E-12  2.114528E-17 -3.184967E-12  0.000000E+00  0.000000E+00  0.000000E+00  0.000000E+00  0.000000E+00  0.000000E+00  0.000000E+00  0.000000E+00  6.697454E-02 -1.255054E-03  4.441678E-09  6.696278E-02                                                                                                                                                                                                                                                                                                                                                                                                                                                                                              
  8.750000E+02  1.250000E+02 -5.425000E+03  5.468502E-10  2.835968E-10  3.095371E-15 -4.675660E-10  3.235414E-12  1.682522E-12  1.836405E-17 -2.763517E-12  0.000000E+00  0.000000E+00  0.000000E+00  0.000000E+00  0.000000E+00  0.000000E+00  0.000000E+00  0.000000E+00  6.782777E-02 -3.718719E-03  2.792363E-09  6.772576E-02                                                                                                                                                                                                                                                                                                                                                                                                                                                                                              
  1.050000E+03  1.250000E+02 -5.425000E+03  1.824161E-10  9.491487E-15  2.281656E-15 -1.824161E-10  1.078313E-12  5.631772E-17  1.353987E-17 -1.078313E-12  0.000000E+00  0.000000E+00  0.000000E+00  0.000000E+00  0.000000E+00  0.000000E+00  0.000000E+00  0.000000E+00  7.018347E-02  8.058444E-09  1.217414E-09  7.018347E-02                                                                                                                                                                                                                                                                                                                                                                                                                                                                                              
  1.225000E+03  1.250000E+02 -5.425000E+03  5.468508E-10 -2.835870E-10 -1.830700E-15 -4.675727E-10  3.235417E-12 -1.682463E-12 -1.086108E-17 -2.763556E-12  0.000000E+00  0.000000E+00  0.000000E+00  0.000000E+00  0.000000E+00  0.000000E+00  0.000000E+00  0.000000E+00  6.782777E-02  3.718725E-03 -2.315722E-09  6.772575E-02                                                                                                                                                                                                                                                                                                                                                                                                                                                                                              
  1.475000E+03  1.250000E+02 -5.425000E+03  6.171667E-10 -3.007535E-10 -1.867040E-15 -5.389268E-10  3.650628E-12 -1.784105E-12 -1.107519E-17 -3.184973E-12  0.000000E+00  0.000000E+00  0.000000E+00  0.000000E+00  0.000000E+00  0.000000E+00  0.000000E+00  0.000000E+00  6.697454E-02  1.255052E-03 -3.337030E-09  6.696278E-02                                                                                                                                                                                                                                                                                                                                                                                                                                                                                              
  1.725000E+03  1.250000E+02 -5.425000E+03  5.808049E-10 -1.873688E-10 -3.495861E-16 -5.497520E-10  3.433643E-12 -1.111417E-12 -2.073610E-18 -3.248793E-12  0.000000E+00  0.000000E+00  0.000000E+00  0.000000E+00  0.000000E+00  0.000000E+00  0.000000E+00  0.000000E+00  6.677825E-02  4.543798E-04 -1.119327E-09  6.677671E-02                                                                                                                                                                                                                                                                                                                                                                                                                                                                                              
  1.975000E+03  1.250000E+02 -5.425000E+03  5.534348E-10 -6.175490E-11  1.691058E-15 -5.499785E-10  3.270646E-12 -3.663023E-13  1.003048E-17 -3.250069E-12  0.000000E+00  0.000000E+00  0.000000E+00  0.000000E+00  0.000000E+00  0.000000E+00  0.000000E+00  0.000000E+00  6.673014E-02  1.157177E-04 -1.682189E-11  6.673004E-02                                                                                                                                                                                                                                                                                                                                                                                                                                                                                              
  1.250000E+02  1.250000E+02 -5.225000E+03  1.883579E-09  1.672454E-11 -1.866702E-15 -1.883505E-09  1.106922E-11  9.856878E-14 -1.100161E-17 -1.106878E-11  0.000000E+00  0.000000E+00  0.000000E+00  0.000000E+00  0.000000E+00  0.000000E+00  0.000000E+00  0.000000E+00  1.439160E-01 -1.231473E-04 -3.627907E-09  1.439159E-01                                                                                                                                                                                                                                                                                                                                                                                                                                                                                              
  3.750000E+02  1.250000E+02 -5.225000E+03  1.870122E-09  3.912084E-11  1.169339E-15 -1.869713E-09  1.099048E-11  2.305686E-13  6.891745E-18 -1.098807E-11  0.000000E+00  0.000000E+00  0.000000E+00  0.000000E+00  0.000000E+00  0.000000E+00  0.000000E+00  0.000000E+00  1.440362E-01 -4.230878E-04  4.721012E-10  1.440356E-01                                                                                                                                                                                                                                                                                                                                                                                                                                                                                              
  6.250000E+02  1.250000E+02 -5.225000E+03  1.818470E-09  2.411541E-11  3.451867E-16 -1.818310E-09  1.068749E-11  1.421325E-13  2.034509E-18 -1.068654E-11  0.000000E+00  0.000000E+00  0.000000E+00  0.000000E+00  0.000000E+00  0.000000E+00  0.000000E+00  0.000000E+00  1.444231E-01 -8.309097E-04  7.045839E-10  1.444207E-01                                                                                                                                                                                                                                                                                                                                                                                                                                                                                              
  8.750000E+02  1.250000E+02 -5.225000E+03  1.656791E-09 -3.373715E-11  1.087776E-15 -1.656447E-09  9.736775E-12 -1.988611E-13  6.411690E-18 -9.734744E-12  0.000000E+00  0.000000E+00  0.000000E+00  0.000000E+00  0.000000E+00  0.000000E+00  0.000000E+00  0.000000E+00  1.456007E-01 -9.772312E-04  6.270649E-10  1.455974E-01                                                                                                                                                                                                                                                                                                                                                                                                                                                                                              
  1.050000E+03  1.250000E+02 -5.225000E+03  1.300335E-09  7.981713E-16  1.812552E-15 -1.300335E-09  7.633574E-12  4.704796E-18  1.068412E-17 -7.633574E-12  0.000000E+00  0.000000E+00  0.000000E+00  0.000000E+00  0.000000E+00  0.000000E+00  0.000000E+00  0.000000E+00  1.483619E-01 -4.300041E-09  2.932579E-09  1.483619E-01                                                                                                                                                                                                                                                                                                                                                                                                                                                                                              
  1.225000E+03  1.250000E+02 -5.225000E+03  1.656799E-09  3.374253E-11  3.246899E-16 -1.656455E-09  9.736823E-12  1.988929E-13  1.913824E-18 -9.734791E-12  0.000000E+00  0.000000E+00  0.000000E+00  0.000000E+00  0.000000E+00  0.000000E+00  0.000000E+00  0.000000E+00  1.456007E-01  9.772317E-04  1.602135E-09  1.455974E-01                                                                                                                                                                                                                                                                                                                                                                                                                                                                                              
  1.475000E+03  1.250000E+02 -5.225000E+03  1.818473E-09 -2.410761E-11 -1.475815E-16 -1.818313E-09  1.068751E-11 -1.420866E-13 -8.698358E-19 -1.068656E-11  0.000000E+00  0.000000E+00  0.000000E+00  0.000000E+00  0.000000E+00  0.000000E+00  0.000000E+00  0.000000E+00  1.444231E-01  8.309115E-04 -4.238486E-10  1.444207E-01                                                                                                                                                                                                                                                                                                                                                                                                                                                                                              
  1.725000E+03  1.250000E+02 -5.225000E+03  1.870123E-09 -3.911995E-11 -2.474319E-15 -1.869714E-09  1.099049E-11 -2.305634E-13 -1.458292E-17 -1.098807E-11  0.000000E+00  0.000000E+00  0.000000E+00  0.000000E+00  0.000000E+00  0.000000E+00  0.000000E+00  0.000000E+00  1.440362E-01  4.230806E-04 -2.061092E-09  1.440356E-01                                                                                                                                                                                                                                                                                                                                                                                                                                                                                              
  1.975000E+03  1.250000E+02 -5.225000E+03  1.883572E-09 -1.672686E-11 -7.145335E-16 -1.883498E-09  1.106917E-11 -9.858243E-14 -4.211182E-18 -1.106874E-11  0.000000E+00  0.000000E+00  0.000000E+00  0.000000E+00  0.000000E+00  0.000000E+00  0.000000E+00  0.000000E+00  1.439160E-01  1.231432E-04 -1.337439E-09  1.439159E-01                                                                                                                                                                                                                                                                                                                                                                                                                                                                                              
  1.250000E+02  1.250000E+02 -4.975000E+03  3.208644E-09 -6.833688E-12  5.863878E-16 -3.208637E-09  1.870973E-11 -3.990944E-14  3.424550E-18 -1.870969E-11  0.000000E+00  0.000000E+00  0.000000E+00  0.000000E+00  0.000000E+00  0.000000E+00  0.000000E+00  0.000000E+00  1.625072E-01 -8.490659E-05  1.420600E-09  1.625072E-01                                                                                                                                                                                                                                                                                                                                                                                                                                                                                              
  3.750000E+02  1.250000E+02 -4.975000E+03  3.174845E-09 -2.556418E-11 -2.349537E-16 -3.174742E-09  1.851285E-11 -1.492990E-13 -1.372160E-18 -1.851225E-11  0.000000E+00  0.000000E+00  0.000000E+00  0.000000E+00  0.000000E+00  0.000000E+00  0.000000E+00  0.000000E+00  1.626397E-01 -2.619455E-04  1.232818E-09  1.626395E-01                                                                                                                                                                                                                                                                                                                                                                                                                                                                                              
  6.250000E+02  1.250000E+02 -4.975000E+03  3.090144E-09 -5.063961E-11 -4.549963E-16 -3.089729E-09  1.801902E-11 -2.957485E-13 -2.657287E-18 -1.801660E-11  0.000000E+00  0.000000E+00  0.000000E+00  0.000000E+00  0.000000E+00  0.000000E+00  0.000000E+00  0.000000E+00  1.629688E-01 -4.087225E-04  4.992912E-10  1.629683E-01                                                                                                                                                                                                                                                                                                                                                                                                                                                                                              
  8.750000E+02  1.250000E+02 -4.975000E+03  2.937723E-09 -4.631319E-11 -1.188188E-15 -2.937358E-09  1.712920E-11 -2.704844E-13 -6.939466E-18 -1.712706E-11  0.000000E+00  0.000000E+00  0.000000E+00  0.000000E+00  0.000000E+00  0.000000E+00  0.000000E+00  0.000000E+00  1.635651E-01 -3.124922E-04 -2.631658E-10  1.635648E-01                                                                                                                                                                                                                                                                                                                                                                                                                                                                                              
  1.050000E+03  1.250000E+02 -4.975000E+03  2.849694E-09 -2.438044E-15 -1.246664E-15 -2.849694E-09  1.661412E-11 -1.423912E-17 -7.281027E-18 -1.661412E-11  0.000000E+00  0.000000E+00  0.000000E+00  0.000000E+00  0.000000E+00  0.000000E+00  0.000000E+00  0.000000E+00  1.639220E-01 -4.851366E-09 -1.612275E-09  1.639220E-01                                                                                                                                                                                                                                                                                                                                                                                                                                                                                              
  1.225000E+03  1.250000E+02 -4.975000E+03  2.937722E-09  4.631433E-11  9.800869E-16 -2.937357E-09  1.712919E-11  2.704911E-13  5.724076E-18 -1.712705E-11  0.000000E+00  0.000000E+00  0.000000E+00  0.000000E+00  0.000000E+00  0.000000E+00  0.000000E+00  0.000000E+00  1.635651E-01  3.124885E-04  3.638372E-10  1.635648E-01                                                                                                                                                                                                                                                                                                                                                                                                                                                                                              
  1.475000E+03  1.250000E+02 -4.975000E+03  3.090146E-09  5.064678E-11 -9.616705E-17 -3.089731E-09  1.801904E-11  2.957904E-13 -5.616385E-19 -1.801661E-11  0.000000E+00  0.000000E+00  0.000000E+00  0.000000E+00  0.000000E+00  0.000000E+00  0.000000E+00  0.000000E+00  1.629688E-01  4.087205E-04 -1.837306E-09  1.629683E-01                                                                                                                                                                                                                                                                                                                                                                                                                                                                                              
  1.725000E+03  1.250000E+02 -4.975000E+03  3.174845E-09  2.556808E-11 -1.003009E-15 -3.174742E-09  1.851285E-11  1.493217E-13 -5.857702E-18 -1.851225E-11  0.000000E+00  0.000000E+00  0.000000E+00  0.000000E+00  0.000000E+00  0.000000E+00  0.000000E+00  0.000000E+00  1.626397E-01  2.619400E-04 -1.716106E-09  1.626395E-01                                                                                                                                                                                                                                                                                                                                                                                                                                                                                              
  1.975000E+03  1.250000E+02 -4.975000E+03  3.208639E-09  6.833985E-12 -1.131937E-15 -3.208632E-09  1.870970E-11  3.991118E-14 -6.610598E-18 -1.870966E-11  0.000000E+00  0.000000E+00  0.000000E+00  0.000000E+00  0.000000E+00  0.000000E+00  0.000000E+00  0.000000E+00  1.625072E-01  8.490424E-05 -3.579400E-10  1.625072E-01                                                                                                                                                                                                                                                                                                                                                                                                                                                                                              
  1.250000E+02  1.250000E+02 -4.725000E+03  4.059585E-09 -4.849643E-12  2.445384E-16 -4.059582E-09  2.347459E-11 -2.804603E-14  1.414190E-18 -2.347457E-11  0.000000E+00  0.000000E+00  0.000000E+00  0.000000E+00  0.000000E+00  0.000000E+00  0.000000E+00  0.000000E+00  1.761150E-01 -4.155905E-05  1.138536E-09  1.761150E-01                                                                                                                                                                                                                                                                                                                                                                                                                                                                                              
  3.750000E+02  1.250000E+02 -4.725000E+03  4.017147E-09 -1.525717E-11 -1.477080E-15 -4.017118E-09  2.322927E-11 -8.823428E-14 -8.542139E-18 -2.322910E-11  0.000000E+00  0.000000E+00  0.000000E+00  0.000000E+00  0.000000E+00  0.000000E+00  0.000000E+00  0.000000E+00  1.762151E-01 -1.199237E-04 -8.898730E-10  1.762151E-01                                                                                                                                                                                                                                                                                                                                                                                                                                                                                              
  6.250000E+02  1.250000E+02 -4.725000E+03  3.929254E-09 -2.379196E-11 -4.431724E-16 -3.929182E-09  2.272106E-11 -1.375930E-13 -2.562941E-18 -2.272064E-11  0.000000E+00  0.000000E+00  0.000000E+00  0.000000E+00  0.000000E+00  0.000000E+00  0.000000E+00  0.000000E+00  1.764249E-01 -1.642892E-04  5.033916E-11  1.764248E-01                                                                                                                                                                                                                                                                                                                                                                                                                                                                                              
  8.750000E+02  1.250000E+02 -4.725000E+03  3.816922E-09 -1.699161E-11 -3.312341E-16 -3.816884E-09  2.207125E-11 -9.826583E-14 -1.915599E-18 -2.207103E-11  0.000000E+00  0.000000E+00  0.000000E+00  0.000000E+00  0.000000E+00  0.000000E+00  0.000000E+00  0.000000E+00  1.767001E-01 -1.056585E-04 -2.196583E-11  1.767001E-01                                                                                                                                                                                                                                                                                                                                                                                                                                                                                              
  1.050000E+03  1.250000E+02 -4.725000E+03  3.791578E-09  7.665380E-17 -4.034410E-16 -3.791578E-09  2.192450E-11  4.433084E-19 -2.333190E-18 -2.192450E-11  0.000000E+00  0.000000E+00  0.000000E+00  0.000000E+00  0.000000E+00  0.000000E+00  0.000000E+00  0.000000E+00  1.767664E-01 -2.916376E-09 -6.431821E-10  1.767664E-01                                                                                                                                                                                                                                                                                                                                                                                                                                                                                              
  1.225000E+03  1.250000E+02 -4.725000E+03  3.816919E-09  1.699193E-11 -2.900569E-17 -3.816881E-09  2.207123E-11  9.826774E-14 -1.677462E-19 -2.207101E-11  0.000000E+00  0.000000E+00  0.000000E+00  0.000000E+00  0.000000E+00  0.000000E+00  0.000000E+00  0.000000E+00  1.767001E-01  1.056514E-04 -8.067887E-10  1.767001E-01                                                                                                                                                                                                                                                                                                                                                                                                                                                                                              
  1.475000E+03  1.250000E+02 -4.725000E+03  3.929251E-09  2.379295E-11  2.557920E-16 -3.929179E-09  2.272104E-11  1.375988E-13  1.479288E-18 -2.272062E-11  0.000000E+00  0.000000E+00  0.000000E+00  0.000000E+00  0.000000E+00  0.000000E+00  0.000000E+00  0.000000E+00  1.764249E-01  1.642799E-04 -7.665000E-10  1.764248E-01                                                                                                                                                                                                                                                                                                                                                                                                                                                                                              
  1.725000E+03  1.250000E+02 -4.725000E+03  4.017145E-09  1.525937E-11 -4.452680E-17 -4.017116E-09  2.322926E-11  8.824699E-14 -2.575040E-19 -2.322909E-11  0.000000E+00  0.000000E+00  0.000000E+00  0.000000E+00  0.000000E+00  0.000000E+00  0.000000E+00  0.000000E+00  1.762151E-01  1.199162E-04  2.539970E-12  1.762151E-01                                                                                                                                                                                                                                                                                                                                                                                                                                                                                              