Title="TOUGHREACT V3.30-OMP flowvector.tec: Liq & Gas Fluxes (kg/s/m^2), Pore Velocities (m/s), & Heat Fluxes (J/s/m2)"                                                                                                                                                                                                                                                                                                                                                                                                                                                                                                                                                                                                                                                                                                         
Variables= "X(m)"     "Y(m)"      "Z(m)"     "FluxLiq"   "FluxLiq_X"   "FluxLiq_Y"   "FluxLiq_Z"   "PorVelLiq"  "PorVelLiqX"  "PorVelLiqY"  "PorVelLiqZ"     "FluxGas"   "FluxGas_X"   "FluxGas_Y"   "FluxGas_Z"   "PorVelGas"  "PorVelGasX"  "PorVelGasY"  "PorVelGasZ"    "HeatFlux"  "HeatFlux_X"  "HeatFlux_Y"  "HeatFlux_Z"                                                                                                                                                                                                                                                                                                                                                                                                                                                                                                
Zone T= "1.00000000E+11 sec" I=     9 J=    10 K=    23 F=Point
  1.250000E+02  1.250000E+02 -5.425000E+03  3.602974E-09 -2.684091E-10 -7.009098E-10 -3.523933E-09  2.025400E-11 -1.513463E-12 -3.952095E-12 -1.980694E-11  0.000000E+00  0.000000E+00  0.000000E+00  0.000000E+00  0.000000E+00  0.000000E+00  0.000000E+00  0.000000E+00  6.444532E-02  2.330152E-04  2.436965E-04  6.444444E-02                                                                                                                                                                                                                                                                                                                                                                                                                                                                                              
  3.750000E+02  1.250000E+02 -5.425000E+03  3.736536E-09 -6.532315E-10 -7.122138E-10 -3.609396E-09  2.100521E-11 -3.683205E-12 -4.015625E-12 -2.028615E-11  0.000000E+00  0.000000E+00  0.000000E+00  0.000000E+00  0.000000E+00  0.000000E+00  0.000000E+00  0.000000E+00  6.454750E-02  5.650783E-04  2.572532E-04  6.454451E-02                                                                                                                                                                                                                                                                                                                                                                                                                                                                                              
  6.250000E+02  1.250000E+02 -5.425000E+03  3.856824E-09 -6.829224E-10 -7.231621E-10 -3.726358E-09  2.167967E-11 -3.850411E-12 -4.077055E-12 -2.094182E-11  0.000000E+00  0.000000E+00  0.000000E+00  0.000000E+00  0.000000E+00  0.000000E+00  0.000000E+00  0.000000E+00  6.468527E-02  5.909103E-04  2.687655E-04  6.468201E-02                                                                                                                                                                                                                                                                                                                                                                                                                                                                                              
  8.750000E+02  1.250000E+02 -5.425000E+03  3.904281E-09 -3.511004E-10 -7.280915E-10 -3.819689E-09  2.194337E-11 -1.979471E-12 -4.104614E-12 -2.146498E-11  0.000000E+00  0.000000E+00  0.000000E+00  0.000000E+00  0.000000E+00  0.000000E+00  0.000000E+00  0.000000E+00  6.479618E-02  3.050027E-04  2.723137E-04  6.479489E-02                                                                                                                                                                                                                                                                                                                                                                                                                                                                                              
  1.050000E+03  1.250000E+02 -5.425000E+03  3.900099E-09  1.697584E-14 -7.286160E-10 -3.831434E-09  2.191912E-11  9.570554E-17 -4.107542E-12 -2.153081E-11  0.000000E+00  0.000000E+00  0.000000E+00  0.000000E+00  0.000000E+00  0.000000E+00  0.000000E+00  0.000000E+00  6.481003E-02  2.076036E-08  2.726336E-04  6.480945E-02                                                                                                                                                                                                                                                                                                                                                                                                                                                                                              
  1.225000E+03  1.250000E+02 -5.425000E+03  3.904269E-09  3.511183E-10 -7.280902E-10 -3.819675E-09  2.194330E-11  1.979572E-12 -4.104607E-12 -2.146490E-11  0.000000E+00  0.000000E+00  0.000000E+00  0.000000E+00  0.000000E+00  0.000000E+00  0.000000E+00  0.000000E+00  6.479619E-02 -3.049912E-04  2.723045E-04  6.479490E-02                                                                                                                                                                                                                                                                                                                                                                                                                                                                                              
  1.475000E+03  1.250000E+02 -5.425000E+03  3.856837E-09  6.829244E-10 -7.231808E-10 -3.726368E-09  2.167974E-11  3.850422E-12 -4.077161E-12 -2.094188E-11  0.000000E+00  0.000000E+00  0.000000E+00  0.000000E+00  0.000000E+00  0.000000E+00  0.000000E+00  0.000000E+00  6.468525E-02 -5.908823E-04  2.687338E-04  6.468199E-02                                                                                                                                                                                                                                                                                                                                                                                                                                                                                              
  1.725000E+03  1.250000E+02 -5.425000E+03  3.736559E-09  6.532604E-10 -7.122270E-10 -3.609413E-09  2.100535E-11  3.683369E-12 -4.015699E-12 -2.028624E-11  0.000000E+00  0.000000E+00  0.000000E+00  0.000000E+00  0.000000E+00  0.000000E+00  0.000000E+00  0.000000E+00  6.454746E-02 -5.650410E-04  2.572195E-04  6.454447E-02                                                                                                                                                                                                                                                                                                                                                                                                                                                                                              
  1.975000E+03  1.250000E+02 -5.425000E+03  3.602987E-09  2.684371E-10 -7.009418E-10 -3.523938E-09  2.025407E-11  1.513620E-12 -3.952275E-12 -1.980696E-11  0.000000E+00  0.000000E+00  0.000000E+00  0.000000E+00  0.000000E+00  0.000000E+00  0.000000E+00  0.000000E+00  6.444531E-02 -2.330150E-04  2.436545E-04  6.444443E-02                                                                                                                                                                                                                                                                                                                                                                                                                                                                                              
  1.250000E+02  1.250000E+02 -5.225000E+03  1.262390E-08 -2.087101E-10 -5.693425E-10 -1.260933E-08  7.037677E-11 -1.170300E-12 -3.192388E-12 -7.029459E-11  0.000000E+00  0.000000E+00  0.000000E+00  0.000000E+00  0.000000E+00  0.000000E+00  0.000000E+00  0.000000E+00  2.312939E-01  4.279215E-04  6.241716E-04  2.312926E-01                                                                                                                                                                                                                                                                                                                                                                                                                                                                                              
  3.750000E+02  1.250000E+02 -5.225000E+03  1.291102E-08 -5.050337E-10 -5.824748E-10 -1.288799E-08  7.197297E-11 -2.831746E-12 -3.265807E-12 -7.184305E-11  0.000000E+00  0.000000E+00  0.000000E+00  0.000000E+00  0.000000E+00  0.000000E+00  0.000000E+00  0.000000E+00  2.317355E-01  1.033280E-03  6.581916E-04  2.317323E-01                                                                                                                                                                                                                                                                                                                                                                                                                                                                                              
  6.250000E+02  1.250000E+02 -5.225000E+03  1.328701E-08 -5.269931E-10 -5.942027E-10 -1.326325E-08  7.406176E-11 -2.954676E-12 -3.331256E-12 -7.392778E-11  0.000000E+00  0.000000E+00  0.000000E+00  0.000000E+00  0.000000E+00  0.000000E+00  0.000000E+00  0.000000E+00  2.323241E-01  1.081845E-03  6.860551E-04  2.323206E-01                                                                                                                                                                                                                                                                                                                                                                                                                                                                                              
  8.750000E+02  1.250000E+02 -5.225000E+03  1.358456E-08 -2.717262E-10 -5.989264E-10 -1.356863E-08  7.571377E-11 -1.523400E-12 -3.357499E-12 -7.562395E-11  0.000000E+00  0.000000E+00  0.000000E+00  0.000000E+00  0.000000E+00  0.000000E+00  0.000000E+00  0.000000E+00  2.328263E-01  5.620049E-04  6.945334E-04  2.328246E-01                                                                                                                                                                                                                                                                                                                                                                                                                                                                                              
  1.050000E+03  1.250000E+02 -5.225000E+03  1.362059E-08  3.332738E-14 -5.994585E-10 -1.360740E-08  7.591367E-11  1.868396E-16 -3.360451E-12 -7.583926E-11  0.000000E+00  0.000000E+00  0.000000E+00  0.000000E+00  0.000000E+00  0.000000E+00  0.000000E+00  0.000000E+00  2.328934E-01  2.877249E-08  6.952192E-04  2.328923E-01                                                                                                                                                                                                                                                                                                                                                                                                                                                                                              
  1.225000E+03  1.250000E+02 -5.225000E+03  1.358456E-08  2.717380E-10 -5.989459E-10 -1.356863E-08  7.571377E-11  1.523466E-12 -3.357608E-12 -7.562394E-11  0.000000E+00  0.000000E+00  0.000000E+00  0.000000E+00  0.000000E+00  0.000000E+00  0.000000E+00  0.000000E+00  2.328263E-01 -5.620126E-04  6.945244E-04  2.328246E-01                                                                                                                                                                                                                                                                                                                                                                                                                                                                                              
  1.475000E+03  1.250000E+02 -5.225000E+03  1.328702E-08  5.269746E-10 -5.942032E-10 -1.326326E-08  7.406181E-11  2.954572E-12 -3.331259E-12 -7.392784E-11  0.000000E+00  0.000000E+00  0.000000E+00  0.000000E+00  0.000000E+00  0.000000E+00  0.000000E+00  0.000000E+00  2.323241E-01 -1.081852E-03  6.860654E-04  2.323206E-01                                                                                                                                                                                                                                                                                                                                                                                                                                                                                              
  1.725000E+03  1.250000E+02 -5.225000E+03  1.291104E-08  5.050703E-10 -5.824795E-10 -1.288800E-08  7.197305E-11  2.831952E-12 -3.265834E-12 -7.184312E-11  0.000000E+00  0.000000E+00  0.000000E+00  0.000000E+00  0.000000E+00  0.000000E+00  0.000000E+00  0.000000E+00  2.317355E-01 -1.033228E-03  6.581794E-04  2.317323E-01                                                                                                                                                                                                                                                                                                                                                                                                                                                                                              
  1.975000E+03  1.250000E+02 -5.225000E+03  1.262392E-08  2.087439E-10 -5.693772E-10 -1.260935E-08  7.037691E-11  1.170489E-12 -3.192583E-12 -7.029472E-11  0.000000E+00  0.000000E+00  0.000000E+00  0.000000E+00  0.000000E+00  0.000000E+00  0.000000E+00  0.000000E+00  2.312938E-01 -4.278990E-04  6.241483E-04  2.312926E-01                                                                                                                                                                                                                                                                                                                                                                                                                                                                                              
  1.250000E+02  1.250000E+02 -4.975000E+03  2.211445E-08 -1.752642E-10 -4.631169E-10 -2.210891E-08  1.214434E-10 -9.658628E-13 -2.552073E-12 -1.214127E-10  0.000000E+00  0.000000E+00  0.000000E+00  0.000000E+00  0.000000E+00  0.000000E+00  0.000000E+00  0.000000E+00  4.162002E-01  9.551151E-04  1.683977E-03  4.161956E-01                                                                                                                                                                                                                                                                                                                                                                                                                                                                                              
  3.750000E+02  1.250000E+02 -4.975000E+03  2.258454E-08 -4.142821E-10 -4.878625E-10 -2.257547E-08  1.240108E-10 -2.282900E-12 -2.688132E-12 -1.239607E-10  0.000000E+00  0.000000E+00  0.000000E+00  0.000000E+00  0.000000E+00  0.000000E+00  0.000000E+00  0.000000E+00  4.172814E-01  2.272743E-03  1.822102E-03  4.172712E-01                                                                                                                                                                                                                                                                                                                                                                                                                                                                                              
  6.250000E+02  1.250000E+02 -4.975000E+03  2.318603E-08 -4.292992E-10 -5.068285E-10 -2.317652E-08  1.272951E-10 -2.365387E-12 -2.792213E-12 -1.272425E-10  0.000000E+00  0.000000E+00  0.000000E+00  0.000000E+00  0.000000E+00  0.000000E+00  0.000000E+00  0.000000E+00  4.186079E-01  2.393553E-03  1.922335E-03  4.185966E-01                                                                                                                                                                                                                                                                                                                                                                                                                                                                                              
  8.750000E+02  1.250000E+02 -4.975000E+03  2.370079E-08 -2.240297E-10 -5.130021E-10 -2.369418E-08  1.301038E-10 -1.234273E-12 -2.825885E-12 -1.300673E-10  0.000000E+00  0.000000E+00  0.000000E+00  0.000000E+00  0.000000E+00  0.000000E+00  0.000000E+00  0.000000E+00  4.199220E-01  1.275213E-03  1.945415E-03  4.199155E-01                                                                                                                                                                                                                                                                                                                                                                                                                                                                                              
  1.050000E+03  1.250000E+02 -4.975000E+03  2.376412E-08  1.274419E-14 -5.138653E-10 -2.375857E-08  1.304492E-10  7.020902E-17 -2.830597E-12 -1.304184E-10  0.000000E+00  0.000000E+00  0.000000E+00  0.000000E+00  0.000000E+00  0.000000E+00  0.000000E+00  0.000000E+00  4.201347E-01 -6.255226E-10  1.946632E-03  4.201302E-01                                                                                                                                                                                                                                                                                                                                                                                                                                                                                              
  1.225000E+03  1.250000E+02 -4.975000E+03  2.370081E-08  2.240314E-10 -5.130175E-10 -2.369419E-08  1.301039E-10  1.234282E-12 -2.825970E-12 -1.300674E-10  0.000000E+00  0.000000E+00  0.000000E+00  0.000000E+00  0.000000E+00  0.000000E+00  0.000000E+00  0.000000E+00  4.199220E-01 -1.275226E-03  1.945398E-03  4.199155E-01                                                                                                                                                                                                                                                                                                                                                                                                                                                                                              
  1.475000E+03  1.250000E+02 -4.975000E+03  2.318603E-08  4.293016E-10 -5.068263E-10 -2.317652E-08  1.272951E-10  2.365400E-12 -2.792201E-12 -1.272425E-10  0.000000E+00  0.000000E+00  0.000000E+00  0.000000E+00  0.000000E+00  0.000000E+00  0.000000E+00  0.000000E+00  4.186079E-01 -2.393539E-03  1.922348E-03  4.185966E-01                                                                                                                                                                                                                                                                                                                                                                                                                                                                                              
  1.725000E+03  1.250000E+02 -4.975000E+03  2.258454E-08  4.143014E-10 -4.878719E-10 -2.257547E-08  1.240109E-10  2.283007E-12 -2.688184E-12 -1.239607E-10  0.000000E+00  0.000000E+00  0.000000E+00  0.000000E+00  0.000000E+00  0.000000E+00  0.000000E+00  0.000000E+00  4.172814E-01 -2.272721E-03  1.822083E-03  4.172712E-01                                                                                                                                                                                                                                                                                                                                                                                                                                                                                              
  1.975000E+03  1.250000E+02 -4.975000E+03  2.211449E-08  1.752701E-10 -4.631196E-10 -2.210894E-08  1.214436E-10  9.658952E-13 -2.552087E-12 -1.214129E-10  0.000000E+00  0.000000E+00  0.000000E+00  0.000000E+00  0.000000E+00  0.000000E+00  0.000000E+00  0.000000E+00  4.162001E-01 -9.551192E-04  1.683978E-03  4.161956E-01                                                                                                                                                                                                                                                                                                                                                                                                                                                                                              
  1.250000E+02  1.250000E+02 -4.725000E+03  2.732031E-08 -1.227009E-10 -3.417280E-10 -2.731790E-08  1.472419E-10 -6.605440E-13 -1.839484E-12 -1.472289E-10  0.000000E+00  0.000000E+00  0.000000E+00  0.000000E+00  0.000000E+00  0.000000E+00  0.000000E+00  0.000000E+00  5.408822E-01  1.916782E-03  3.904115E-03  5.408647E-01                                                                                                                                                                                                                                                                                                                                                                                                                                                                                              
  3.750000E+02  1.250000E+02 -4.725000E+03  2.790893E-08 -2.717286E-10 -3.831545E-10 -2.790498E-08  1.503877E-10 -1.462657E-12 -2.062074E-12 -1.503665E-10  0.000000E+00  0.000000E+00  0.000000E+00  0.000000E+00  0.000000E+00  0.000000E+00  0.000000E+00  0.000000E+00  5.429607E-01  4.409000E-03  4.457430E-03  5.429245E-01                                                                                                                                                                                                                                                                                                                                                                                                                                                                                              
  6.250000E+02  1.250000E+02 -4.725000E+03  2.859869E-08 -2.732495E-10 -4.109280E-10 -2.859444E-08  1.540730E-10 -1.470572E-12 -2.211022E-12 -1.540501E-10  0.000000E+00  0.000000E+00  0.000000E+00  0.000000E+00  0.000000E+00  0.000000E+00  0.000000E+00  0.000000E+00  5.449228E-01  4.750740E-03  4.790211E-03  5.448810E-01                                                                                                                                                                                                                                                                                                                                                                                                                                                                                              
  8.750000E+02  1.250000E+02 -4.725000E+03  2.926603E-08 -1.378409E-10 -4.209463E-10 -2.926267E-08  1.576341E-10 -7.417364E-13 -2.264467E-12 -1.576161E-10  0.000000E+00  0.000000E+00  0.000000E+00  0.000000E+00  0.000000E+00  0.000000E+00  0.000000E+00  0.000000E+00  5.480084E-01  2.738305E-03  4.827744E-03  5.479803E-01                                                                                                                                                                                                                                                                                                                                                                                                                                                                                              
  1.050000E+03  1.250000E+02 -4.725000E+03  2.929059E-08  3.781920E-15 -4.255416E-10 -2.928750E-08  1.577637E-10  2.034875E-17 -2.289121E-12 -1.577471E-10  0.000000E+00  0.000000E+00  0.000000E+00  0.000000E+00  0.000000E+00  0.000000E+00  0.000000E+00  0.000000E+00  5.489096E-01  1.945832E-09  4.823275E-03  5.488884E-01                                                                                                                                                                                                                                                                                                                                                                                                                                                                                              
  1.225000E+03  1.250000E+02 -4.725000E+03  2.926603E-08  1.378417E-10 -4.209475E-10 -2.926268E-08  1.576342E-10  7.417406E-13 -2.264474E-12 -1.576162E-10  0.000000E+00  0.000000E+00  0.000000E+00  0.000000E+00  0.000000E+00  0.000000E+00  0.000000E+00  0.000000E+00  5.480084E-01 -2.738305E-03  4.827746E-03  5.479803E-01                                                                                                                                                                                                                                                                                                                                                                                                                                                                                              
  1.475000E+03  1.250000E+02 -4.725000E+03  2.859869E-08  2.732487E-10 -4.109282E-10 -2.859443E-08  1.540730E-10  1.470568E-12 -2.211023E-12 -1.540501E-10  0.000000E+00  0.000000E+00  0.000000E+00  0.000000E+00  0.000000E+00  0.000000E+00  0.000000E+00  0.000000E+00  5.449228E-01 -4.750743E-03  4.790214E-03  5.448811E-01                                                                                                                                                                                                                                                                                                                                                                                                                                                                                              
  1.725000E+03  1.250000E+02 -4.725000E+03  2.790894E-08  2.717292E-10 -3.831543E-10 -2.790499E-08  1.503878E-10  1.462661E-12 -2.062073E-12 -1.503665E-10  0.000000E+00  0.000000E+00  0.000000E+00  0.000000E+00  0.000000E+00  0.000000E+00  0.000000E+00  0.000000E+00  5.429607E-01 -4.409005E-03  4.457434E-03  5.429245E-01                                                                                                                                                                                                                                                                                                                                                                                                                                                                                              