Title="TOUGHREACT V3.30-OMP flowvector.tec: Liq & Gas Fluxes (kg/s/m^2), Pore Velocities (m/s), & Heat Fluxes (J/s/m2)"                                                                                                                                                                                                                                                                                                                                                                                                                                                                                                                                                                                                                                                                                                         
Variables= "X(m)"     "Y(m)"      "Z(m)"     "FluxLiq"   "FluxLiq_X"   "FluxLiq_Y"   "FluxLiq_Z"   "PorVelLiq"  "PorVelLiqX"  "PorVelLiqY"  "PorVelLiqZ"     "FluxGas"   "FluxGas_X"   "FluxGas_Y"   "FluxGas_Z"   "PorVelGas"  "PorVelGasX"  "PorVelGasY"  "PorVelGasZ"    "HeatFlux"  "HeatFlux_X"  "HeatFlux_Y"  "HeatFlux_Z"                                                                                                                                                                                                                                                                                                                                                                                                                                                                                                
Zone T= "1.00000000E+10 sec" I=     9 J=    10 K=    23 F=Point
  1.250000E+02  1.250000E+02 -5.425000E+03  2.525578E-09 -1.582469E-10 -3.273120E-10 -2.499274E-09  1.456175E-11 -9.155090E-13 -1.893604E-12 -1.440905E-11  0.000000E+00  0.000000E+00  0.000000E+00  0.000000E+00  0.000000E+00  0.000000E+00  0.000000E+00  0.000000E+00  6.008892E-02 -1.381304E-04 -3.110690E-04  6.008796E-02                                                                                                                                                                                                                                                                                                                                                                                                                                                                                              
  3.750000E+02  1.250000E+02 -5.425000E+03  2.616445E-09 -3.750600E-10 -3.224977E-10 -2.569262E-09  1.508633E-11 -2.169838E-12 -1.865747E-12 -1.481244E-11  0.000000E+00  0.000000E+00  0.000000E+00  0.000000E+00  0.000000E+00  0.000000E+00  0.000000E+00  0.000000E+00  6.012716E-02 -3.322958E-04 -3.094517E-04  6.012545E-02                                                                                                                                                                                                                                                                                                                                                                                                                                                                                              
  6.250000E+02  1.250000E+02 -5.425000E+03  2.696607E-09 -3.806036E-10 -3.119375E-10 -2.651325E-09  1.554828E-11 -2.201903E-12 -1.804647E-12 -1.528541E-11  0.000000E+00  0.000000E+00  0.000000E+00  0.000000E+00  0.000000E+00  0.000000E+00  0.000000E+00  0.000000E+00  6.016659E-02 -3.414696E-04 -3.031571E-04  6.016485E-02                                                                                                                                                                                                                                                                                                                                                                                                                                                                                              
  8.750000E+02  1.250000E+02 -5.425000E+03  2.736603E-09 -1.930309E-10 -3.015341E-10 -2.713082E-09  1.577789E-11 -1.116738E-12 -1.744457E-12 -1.564134E-11  0.000000E+00  0.000000E+00  0.000000E+00  0.000000E+00  0.000000E+00  0.000000E+00  0.000000E+00  0.000000E+00  6.019533E-02 -1.729467E-04 -2.958165E-04  6.019435E-02                                                                                                                                                                                                                                                                                                                                                                                                                                                                                              
  1.050000E+03  1.250000E+02 -5.425000E+03  2.738248E-09 -4.899848E-14 -3.001277E-10 -2.721750E-09  1.578708E-11 -2.834698E-16 -1.736319E-12 -1.569131E-11  0.000000E+00  0.000000E+00  0.000000E+00  0.000000E+00  0.000000E+00  0.000000E+00  0.000000E+00  0.000000E+00  6.020051E-02 -3.590972E-08 -2.950461E-04  6.019979E-02                                                                                                                                                                                                                                                                                                                                                                                                                                                                                              
  1.225000E+03  1.250000E+02 -5.425000E+03  2.736570E-09  1.930016E-10 -3.015160E-10 -2.713053E-09  1.577771E-11  1.116569E-12 -1.744352E-12 -1.564118E-11  0.000000E+00  0.000000E+00  0.000000E+00  0.000000E+00  0.000000E+00  0.000000E+00  0.000000E+00  0.000000E+00  6.019535E-02  1.729041E-04 -2.957883E-04  6.019437E-02                                                                                                                                                                                                                                                                                                                                                                                                                                                                                              
  1.475000E+03  1.250000E+02 -5.425000E+03  2.696582E-09  3.806288E-10 -3.119299E-10 -2.651297E-09  1.554813E-11  2.202049E-12 -1.804603E-12 -1.528525E-11  0.000000E+00  0.000000E+00  0.000000E+00  0.000000E+00  0.000000E+00  0.000000E+00  0.000000E+00  0.000000E+00  6.016664E-02  3.414701E-04 -3.031244E-04  6.016491E-02                                                                                                                                                                                                                                                                                                                                                                                                                                                                                              
  1.725000E+03  1.250000E+02 -5.425000E+03  2.616427E-09  3.750752E-10 -3.224936E-10 -2.569242E-09  1.508623E-11  2.169925E-12 -1.865723E-12 -1.481232E-11  0.000000E+00  0.000000E+00  0.000000E+00  0.000000E+00  0.000000E+00  0.000000E+00  0.000000E+00  0.000000E+00  6.012719E-02  3.323385E-04 -3.094519E-04  6.012548E-02                                                                                                                                                                                                                                                                                                                                                                                                                                                                                              
  1.975000E+03  1.250000E+02 -5.425000E+03  2.525576E-09  1.582566E-10 -3.273317E-10 -2.499268E-09  1.456174E-11  9.155647E-13 -1.893718E-12 -1.440902E-11  0.000000E+00  0.000000E+00  0.000000E+00  0.000000E+00  0.000000E+00  0.000000E+00  0.000000E+00  0.000000E+00  6.008891E-02  1.381660E-04 -3.111099E-04  6.008795E-02                                                                                                                                                                                                                                                                                                                                                                                                                                                                                              
  1.250000E+02  1.250000E+02 -5.225000E+03  5.108019E-09 -1.950215E-10 -3.722680E-10 -5.090702E-09  2.930664E-11 -1.121628E-12 -2.141026E-12 -2.920680E-11  0.000000E+00  0.000000E+00  0.000000E+00  0.000000E+00  0.000000E+00  0.000000E+00  0.000000E+00  0.000000E+00  1.727445E-01 -8.589146E-05 -2.687062E-04  1.727443E-01                                                                                                                                                                                                                                                                                                                                                                                                                                                                                              
  3.750000E+02  1.250000E+02 -5.225000E+03  5.434446E-09 -4.553001E-10 -3.666959E-10 -5.402910E-09  3.117434E-11 -2.618548E-12 -2.108954E-12 -3.099250E-11  0.000000E+00  0.000000E+00  0.000000E+00  0.000000E+00  0.000000E+00  0.000000E+00  0.000000E+00  0.000000E+00  1.732504E-01 -2.220737E-04 -2.772497E-04  1.732500E-01                                                                                                                                                                                                                                                                                                                                                                                                                                                                                              
  6.250000E+02  1.250000E+02 -5.225000E+03  5.785289E-09 -4.569433E-10 -3.522612E-10 -5.756447E-09  3.318088E-11 -2.627969E-12 -2.025909E-12 -3.301455E-11  0.000000E+00  0.000000E+00  0.000000E+00  0.000000E+00  0.000000E+00  0.000000E+00  0.000000E+00  0.000000E+00  1.738243E-01 -2.401213E-04 -2.838849E-04  1.738239E-01                                                                                                                                                                                                                                                                                                                                                                                                                                                                                              
  8.750000E+02  1.250000E+02 -5.225000E+03  6.042267E-09 -2.322615E-10 -3.373839E-10 -6.028368E-09  3.464976E-11 -1.335769E-12 -1.940328E-12 -3.456960E-11  0.000000E+00  0.000000E+00  0.000000E+00  0.000000E+00  0.000000E+00  0.000000E+00  0.000000E+00  0.000000E+00  1.742741E-01 -1.192585E-04 -2.857830E-04  1.742738E-01                                                                                                                                                                                                                                                                                                                                                                                                                                                                                              
  1.050000E+03  1.250000E+02 -5.225000E+03  6.077908E-09 -1.335668E-14 -3.352389E-10 -6.068655E-09  3.485331E-11 -7.681580E-17 -1.927989E-12 -3.479994E-11  0.000000E+00  0.000000E+00  0.000000E+00  0.000000E+00  0.000000E+00  0.000000E+00  0.000000E+00  0.000000E+00  1.743477E-01 -1.086854E-08 -2.870992E-04  1.743474E-01                                                                                                                                                                                                                                                                                                                                                                                                                                                                                              
  1.225000E+03  1.250000E+02 -5.225000E+03  6.042231E-09  2.322638E-10 -3.373814E-10 -6.028332E-09  3.464955E-11  1.335782E-12 -1.940314E-12 -3.456939E-11  0.000000E+00  0.000000E+00  0.000000E+00  0.000000E+00  0.000000E+00  0.000000E+00  0.000000E+00  0.000000E+00  1.742741E-01  1.192635E-04 -2.857831E-04  1.742738E-01                                                                                                                                                                                                                                                                                                                                                                                                                                                                                              
  1.475000E+03  1.250000E+02 -5.225000E+03  5.785252E-09  4.569568E-10 -3.522726E-10 -5.756408E-09  3.318067E-11  2.628046E-12 -2.025975E-12 -3.301433E-11  0.000000E+00  0.000000E+00  0.000000E+00  0.000000E+00  0.000000E+00  0.000000E+00  0.000000E+00  0.000000E+00  1.738243E-01  2.401254E-04 -2.838956E-04  1.738239E-01                                                                                                                                                                                                                                                                                                                                                                                                                                                                                              
  1.725000E+03  1.250000E+02 -5.225000E+03  5.434428E-09  4.552998E-10 -3.666863E-10 -5.402893E-09  3.117424E-11  2.618546E-12 -2.108898E-12 -3.099240E-11  0.000000E+00  0.000000E+00  0.000000E+00  0.000000E+00  0.000000E+00  0.000000E+00  0.000000E+00  0.000000E+00  1.732504E-01  2.220703E-04 -2.772340E-04  1.732500E-01                                                                                                                                                                                                                                                                                                                                                                                                                                                                                              
  1.975000E+03  1.250000E+02 -5.225000E+03  5.108017E-09  1.950234E-10 -3.722575E-10 -5.090700E-09  2.930663E-11  1.121639E-12 -2.140966E-12 -2.920679E-11  0.000000E+00  0.000000E+00  0.000000E+00  0.000000E+00  0.000000E+00  0.000000E+00  0.000000E+00  0.000000E+00  1.727445E-01  8.589986E-05 -2.686895E-04  1.727443E-01                                                                                                                                                                                                                                                                                                                                                                                                                                                                                              
  1.250000E+02  1.250000E+02 -4.975000E+03  1.142955E-08 -2.863995E-10 -5.028112E-10 -1.141490E-08  6.426649E-11 -1.625488E-12 -2.853740E-12 -6.418252E-11  0.000000E+00  0.000000E+00  0.000000E+00  0.000000E+00  0.000000E+00  0.000000E+00  0.000000E+00  0.000000E+00  3.613299E-01  5.310672E-04  4.014795E-04  3.613293E-01                                                                                                                                                                                                                                                                                                                                                                                                                                                                                              
  3.750000E+02  1.250000E+02 -4.975000E+03  1.222757E-08 -6.460021E-10 -4.988648E-10 -1.220030E-08  6.875000E-11 -3.666249E-12 -2.831096E-12 -6.859378E-11  0.000000E+00  0.000000E+00  0.000000E+00  0.000000E+00  0.000000E+00  0.000000E+00  0.000000E+00  0.000000E+00  3.639584E-01  1.100966E-03  3.364301E-04  3.639565E-01                                                                                                                                                                                                                                                                                                                                                                                                                                                                                              
  6.250000E+02  1.250000E+02 -4.975000E+03  1.307638E-08 -6.334476E-10 -4.758292E-10 -1.305235E-08  7.351563E-11 -3.594701E-12 -2.700108E-12 -7.337803E-11  0.000000E+00  0.000000E+00  0.000000E+00  0.000000E+00  0.000000E+00  0.000000E+00  0.000000E+00  0.000000E+00  3.670019E-01  1.018658E-03  2.233362E-04  3.670004E-01                                                                                                                                                                                                                                                                                                                                                                                                                                                                                              
  8.750000E+02  1.250000E+02 -4.975000E+03  1.375967E-08 -3.249825E-10 -4.494527E-10 -1.374848E-08  7.734792E-11 -1.844107E-12 -2.550247E-12 -7.728386E-11  0.000000E+00  0.000000E+00  0.000000E+00  0.000000E+00  0.000000E+00  0.000000E+00  0.000000E+00  0.000000E+00  3.696543E-01  5.599055E-04  1.238936E-04  3.696538E-01                                                                                                                                                                                                                                                                                                                                                                                                                                                                                              
  1.050000E+03  1.250000E+02 -4.975000E+03  1.386169E-08 -3.239511E-15 -4.454981E-10 -1.385453E-08  7.791955E-11 -1.838168E-17 -2.527780E-12 -7.787853E-11  0.000000E+00  0.000000E+00  0.000000E+00  0.000000E+00  0.000000E+00  0.000000E+00  0.000000E+00  0.000000E+00  3.701149E-01 -1.458331E-08  1.020438E-04  3.701149E-01                                                                                                                                                                                                                                                                                                                                                                                                                                                                                              
  1.225000E+03  1.250000E+02 -4.975000E+03  1.375972E-08  3.249979E-10 -4.494583E-10 -1.374854E-08  7.734825E-11  1.844195E-12 -2.550279E-12 -7.728419E-11  0.000000E+00  0.000000E+00  0.000000E+00  0.000000E+00  0.000000E+00  0.000000E+00  0.000000E+00  0.000000E+00  3.696542E-01 -5.599002E-04  1.238853E-04  3.696537E-01                                                                                                                                                                                                                                                                                                                                                                                                                                                                                              
  1.475000E+03  1.250000E+02 -4.975000E+03  1.307646E-08  6.334495E-10 -4.758570E-10 -1.305244E-08  7.351613E-11  3.594712E-12 -2.700266E-12 -7.337852E-11  0.000000E+00  0.000000E+00  0.000000E+00  0.000000E+00  0.000000E+00  0.000000E+00  0.000000E+00  0.000000E+00  3.670018E-01 -1.018650E-03  2.233229E-04  3.670004E-01                                                                                                                                                                                                                                                                                                                                                                                                                                                                                              
  1.725000E+03  1.250000E+02 -4.975000E+03  1.222757E-08  6.459905E-10 -4.988458E-10 -1.220030E-08  6.874996E-11  3.666183E-12 -2.830988E-12 -6.859375E-11  0.000000E+00  0.000000E+00  0.000000E+00  0.000000E+00  0.000000E+00  0.000000E+00  0.000000E+00  0.000000E+00  3.639583E-01 -1.100955E-03  3.364525E-04  3.639565E-01                                                                                                                                                                                                                                                                                                                                                                                                                                                                                              
  1.975000E+03  1.250000E+02 -4.975000E+03  1.142955E-08  2.864046E-10 -5.027924E-10 -1.141489E-08  6.426647E-11  1.625517E-12 -2.853634E-12 -6.418250E-11  0.000000E+00  0.000000E+00  0.000000E+00  0.000000E+00  0.000000E+00  0.000000E+00  0.000000E+00  0.000000E+00  3.613300E-01 -5.310446E-04  4.014892E-04  3.613293E-01                                                                                                                                                                                                                                                                                                                                                                                                                                                                                              
  1.250000E+02  1.250000E+02 -4.725000E+03  4.551803E-08 -2.483242E-10 -4.875719E-10 -4.551474E-08  2.475123E-10 -1.371314E-12 -2.692269E-12 -2.474939E-10  0.000000E+00  0.000000E+00  0.000000E+00  0.000000E+00  0.000000E+00  0.000000E+00  0.000000E+00  0.000000E+00  9.519339E-01  3.182749E-03  4.767513E-03  9.519166E-01                                                                                                                                                                                                                                                                                                                                                                                                                                                                                              
  3.750000E+02  1.250000E+02 -4.725000E+03  4.651015E-08 -5.242865E-10 -4.945462E-10 -4.650456E-08  2.528982E-10 -2.894695E-12 -2.729829E-12 -2.528669E-10  0.000000E+00  0.000000E+00  0.000000E+00  0.000000E+00  0.000000E+00  0.000000E+00  0.000000E+00  0.000000E+00  9.551051E-01  6.827109E-03  4.888146E-03  9.550682E-01                                                                                                                                                                                                                                                                                                                                                                                                                                                                                              
  6.250000E+02  1.250000E+02 -4.725000E+03  4.754907E-08 -4.821508E-10 -4.764571E-10 -4.754424E-08  2.585296E-10 -2.661180E-12 -2.628992E-12 -2.585025E-10  0.000000E+00  0.000000E+00  0.000000E+00  0.000000E+00  0.000000E+00  0.000000E+00  0.000000E+00  0.000000E+00  9.587378E-01  6.792478E-03  4.600680E-03  9.587027E-01                                                                                                                                                                                                                                                                                                                                                                                                                                                                                              
  8.750000E+02  1.250000E+02 -4.725000E+03  4.853896E-08 -2.328920E-10 -4.541384E-10 -4.853628E-08  2.638726E-10 -1.285126E-12 -2.505061E-12 -2.638576E-10  0.000000E+00  0.000000E+00  0.000000E+00  0.000000E+00  0.000000E+00  0.000000E+00  0.000000E+00  0.000000E+00  9.645469E-01  3.928884E-03  4.160107E-03  9.645300E-01                                                                                                                                                                                                                                                                                                                                                                                                                                                                                              
  1.050000E+03  1.250000E+02 -4.725000E+03  4.858094E-08 -1.030868E-13 -4.554884E-10 -4.857881E-08  2.640947E-10 -5.687452E-16 -2.512377E-12 -2.640827E-10  0.000000E+00  0.000000E+00  0.000000E+00  0.000000E+00  0.000000E+00  0.000000E+00  0.000000E+00  0.000000E+00  9.662250E-01 -1.051907E-07  4.068925E-03  9.662164E-01                                                                                                                                                                                                                                                                                                                                                                                                                                                                                              
  1.225000E+03  1.250000E+02 -4.725000E+03  4.853891E-08  2.327790E-10 -4.540959E-10 -4.853623E-08  2.638724E-10  1.284503E-12 -2.504827E-12 -2.638574E-10  0.000000E+00  0.000000E+00  0.000000E+00  0.000000E+00  0.000000E+00  0.000000E+00  0.000000E+00  0.000000E+00  9.645470E-01 -3.928959E-03  4.160201E-03  9.645300E-01                                                                                                                                                                                                                                                                                                                                                                                                                                                                                              
  1.475000E+03  1.250000E+02 -4.725000E+03  4.754905E-08  4.822264E-10 -4.763912E-10 -4.754422E-08  2.585295E-10  2.661598E-12 -2.628628E-12 -2.585024E-10  0.000000E+00  0.000000E+00  0.000000E+00  0.000000E+00  0.000000E+00  0.000000E+00  0.000000E+00  0.000000E+00  9.587378E-01 -6.792442E-03  4.600757E-03  9.587027E-01                                                                                                                                                                                                                                                                                                                                                                                                                                                                                              
  1.725000E+03  1.250000E+02 -4.725000E+03  4.651014E-08  5.243884E-10 -4.944810E-10 -4.650455E-08  2.528982E-10  2.895258E-12 -2.729468E-12 -2.528669E-10  0.000000E+00  0.000000E+00  0.000000E+00  0.000000E+00  0.000000E+00  0.000000E+00  0.000000E+00  0.000000E+00  9.551051E-01 -6.826995E-03  4.888249E-03  9.550682E-01                                                                                                                                                                                                                                                                                                                                                                                                                                                                                              