Title="TOUGHREACT V3.30-OMP flowvector.tec: Liq & Gas Fluxes (kg/s/m^2), Pore Velocities (m/s), & Heat Fluxes (J/s/m2)"                                                                                                                                                                                                                                                                                                                                                                                                                                                                                                                                                                                                                                                                                                         
Variables= "X(m)"     "Y(m)"      "Z(m)"     "FluxLiq"   "FluxLiq_X"   "FluxLiq_Y"   "FluxLiq_Z"   "PorVelLiq"  "PorVelLiqX"  "PorVelLiqY"  "PorVelLiqZ"     "FluxGas"   "FluxGas_X"   "FluxGas_Y"   "FluxGas_Z"   "PorVelGas"  "PorVelGasX"  "PorVelGasY"  "PorVelGasZ"    "HeatFlux"  "HeatFlux_X"  "HeatFlux_Y"  "HeatFlux_Z"                                                                                                                                                                                                                                                                                                                                                                                                                                                                                                
Zone T= "3.15569000E+08 sec" I=     9 J=    10 K=    23 F=Point
  1.250000E+02  1.250000E+02 -5.425000E+03  1.356518E-07 -5.481111E-10 -1.764369E-10  1.356505E-07  7.804129E-10 -3.166446E-12 -1.019279E-12  7.804058E-10  0.000000E+00  0.000000E+00  0.000000E+00  0.000000E+00  0.000000E+00  0.000000E+00  0.000000E+00  0.000000E+00  2.357027E-01 -5.572663E-04 -1.793841E-04  2.357020E-01                                                                                                                                                                                                                                                                                                                                                                                                                                                                                              
  3.750000E+02  1.250000E+02 -5.425000E+03  1.353896E-07 -1.278383E-09 -1.279452E-10  1.353835E-07  7.789034E-10 -7.385228E-12 -7.391411E-13  7.788681E-10  0.000000E+00  0.000000E+00  0.000000E+00  0.000000E+00  0.000000E+00  0.000000E+00  0.000000E+00  0.000000E+00  2.354342E-01 -1.299735E-03 -1.300831E-04  2.354306E-01                                                                                                                                                                                                                                                                                                                                                                                                                                                                                              
  6.250000E+02  1.250000E+02 -5.425000E+03  1.350741E-07 -1.244092E-09 -6.890120E-11  1.350684E-07  7.770872E-10 -7.187118E-12 -3.980423E-13  7.770538E-10  0.000000E+00  0.000000E+00  0.000000E+00  0.000000E+00  0.000000E+00  0.000000E+00  0.000000E+00  0.000000E+00  2.351139E-01 -1.264873E-03 -7.005395E-05  2.351105E-01                                                                                                                                                                                                                                                                                                                                                                                                                                                                                              
  8.750000E+02  1.250000E+02 -5.425000E+03  1.348847E-07 -6.030707E-10 -3.800924E-11  1.348834E-07  7.759960E-10 -3.483936E-12 -2.195791E-13  7.759881E-10  0.000000E+00  0.000000E+00  0.000000E+00  0.000000E+00  0.000000E+00  0.000000E+00  0.000000E+00  0.000000E+00  2.349233E-01 -6.131454E-04 -3.864465E-05  2.349225E-01                                                                                                                                                                                                                                                                                                                                                                                                                                                                                              
  1.050000E+03  1.250000E+02 -5.425000E+03  1.348629E-07 -7.618652E-16 -3.467770E-11  1.348629E-07  7.758701E-10 -4.401292E-18 -2.003328E-13  7.758701E-10  0.000000E+00  0.000000E+00  0.000000E+00  0.000000E+00  0.000000E+00  0.000000E+00  0.000000E+00  0.000000E+00  2.349016E-01 -6.697960E-10 -3.525777E-05  2.349016E-01                                                                                                                                                                                                                                                                                                                                                                                                                                                                                              
  1.225000E+03  1.250000E+02 -5.425000E+03  1.348847E-07  6.030693E-10 -3.800917E-11  1.348834E-07  7.759960E-10  3.483928E-12 -2.195787E-13  7.759881E-10  0.000000E+00  0.000000E+00  0.000000E+00  0.000000E+00  0.000000E+00  0.000000E+00  0.000000E+00  0.000000E+00  2.349233E-01  6.131432E-04 -3.864496E-05  2.349225E-01                                                                                                                                                                                                                                                                                                                                                                                                                                                                                              
  1.475000E+03  1.250000E+02 -5.425000E+03  1.350741E-07  1.244091E-09 -6.890123E-11  1.350684E-07  7.770872E-10  7.187112E-12 -3.980425E-13  7.770538E-10  0.000000E+00  0.000000E+00  0.000000E+00  0.000000E+00  0.000000E+00  0.000000E+00  0.000000E+00  0.000000E+00  2.351139E-01  1.264871E-03 -7.005308E-05  2.351105E-01                                                                                                                                                                                                                                                                                                                                                                                                                                                                                              
  1.725000E+03  1.250000E+02 -5.425000E+03  1.353896E-07  1.278382E-09 -1.279451E-10  1.353835E-07  7.789034E-10  7.385222E-12 -7.391402E-13  7.788681E-10  0.000000E+00  0.000000E+00  0.000000E+00  0.000000E+00  0.000000E+00  0.000000E+00  0.000000E+00  0.000000E+00  2.354342E-01  1.299735E-03 -1.300836E-04  2.354306E-01                                                                                                                                                                                                                                                                                                                                                                                                                                                                                              
  1.975000E+03  1.250000E+02 -5.425000E+03  1.356518E-07  5.481106E-10 -1.764365E-10  1.356505E-07  7.804129E-10  3.166443E-12 -1.019278E-12  7.804058E-10  0.000000E+00  0.000000E+00  0.000000E+00  0.000000E+00  0.000000E+00  0.000000E+00  0.000000E+00  0.000000E+00  2.357027E-01  5.572664E-04 -1.793848E-04  2.357020E-01                                                                                                                                                                                                                                                                                                                                                                                                                                                                                              
  1.250000E+02  1.250000E+02 -5.225000E+03  4.916549E-07 -7.454769E-10 -2.515701E-10  4.916542E-07  2.808295E-09 -4.268070E-12 -1.440313E-12  2.808292E-09  0.000000E+00  0.000000E+00  0.000000E+00  0.000000E+00  0.000000E+00  0.000000E+00  0.000000E+00  0.000000E+00  6.849002E-01 -7.319013E-04 -2.470417E-04  6.848998E-01                                                                                                                                                                                                                                                                                                                                                                                                                                                                                              
  3.750000E+02  1.250000E+02 -5.225000E+03  4.904949E-07 -1.706874E-09 -1.601554E-10  4.904919E-07  2.801665E-09 -9.772330E-12 -9.169355E-13  2.801648E-09  0.000000E+00  0.000000E+00  0.000000E+00  0.000000E+00  0.000000E+00  0.000000E+00  0.000000E+00  0.000000E+00  6.837685E-01 -1.675829E-03 -1.573249E-04  6.837665E-01                                                                                                                                                                                                                                                                                                                                                                                                                                                                                              
  6.250000E+02  1.250000E+02 -5.225000E+03  4.891683E-07 -1.609228E-09 -5.266425E-11  4.891656E-07  2.794081E-09 -9.213258E-12 -3.015171E-13  2.794066E-09  0.000000E+00  0.000000E+00  0.000000E+00  0.000000E+00  0.000000E+00  0.000000E+00  0.000000E+00  0.000000E+00  6.824689E-01 -1.580012E-03 -5.179219E-05  6.824671E-01                                                                                                                                                                                                                                                                                                                                                                                                                                                                                              
  8.750000E+02  1.250000E+02 -5.225000E+03  4.884415E-07 -7.581148E-10 -7.666073E-12  4.884409E-07  2.789925E-09 -4.340405E-12 -4.389026E-14  2.789922E-09  0.000000E+00  0.000000E+00  0.000000E+00  0.000000E+00  0.000000E+00  0.000000E+00  0.000000E+00  0.000000E+00  6.817523E-01 -7.443679E-04 -7.582409E-06  6.817519E-01                                                                                                                                                                                                                                                                                                                                                                                                                                                                                              
  1.050000E+03  1.250000E+02 -5.225000E+03  4.883701E-07 -6.748377E-16 -3.875156E-12  4.883701E-07  2.789516E-09 -3.863617E-18 -2.218627E-14  2.789516E-09  0.000000E+00  0.000000E+00  0.000000E+00  0.000000E+00  0.000000E+00  0.000000E+00  0.000000E+00  0.000000E+00  6.816815E-01 -8.081254E-10 -3.853244E-06  6.816815E-01                                                                                                                                                                                                                                                                                                                                                                                                                                                                                              
  1.225000E+03  1.250000E+02 -5.225000E+03  4.884415E-07  7.581134E-10 -7.666038E-12  4.884409E-07  2.789925E-09  4.340397E-12 -4.389006E-14  2.789922E-09  0.000000E+00  0.000000E+00  0.000000E+00  0.000000E+00  0.000000E+00  0.000000E+00  0.000000E+00  0.000000E+00  6.817523E-01  7.443665E-04 -7.582240E-06  6.817519E-01                                                                                                                                                                                                                                                                                                                                                                                                                                                                                              
  1.475000E+03  1.250000E+02 -5.225000E+03  4.891683E-07  1.609226E-09 -5.266410E-11  4.891656E-07  2.794081E-09  9.213251E-12 -3.015162E-13  2.794066E-09  0.000000E+00  0.000000E+00  0.000000E+00  0.000000E+00  0.000000E+00  0.000000E+00  0.000000E+00  0.000000E+00  6.824689E-01  1.580011E-03 -5.179209E-05  6.824671E-01                                                                                                                                                                                                                                                                                                                                                                                                                                                                                              
  1.725000E+03  1.250000E+02 -5.225000E+03  4.904949E-07  1.706873E-09 -1.601553E-10  4.904919E-07  2.801665E-09  9.772325E-12 -9.169348E-13  2.801648E-09  0.000000E+00  0.000000E+00  0.000000E+00  0.000000E+00  0.000000E+00  0.000000E+00  0.000000E+00  0.000000E+00  6.837685E-01  1.675828E-03 -1.573249E-04  6.837665E-01                                                                                                                                                                                                                                                                                                                                                                                                                                                                                              
  1.975000E+03  1.250000E+02 -5.225000E+03  4.916549E-07  7.454766E-10 -2.515700E-10  4.916542E-07  2.808295E-09  4.268068E-12 -1.440312E-12  2.808292E-09  0.000000E+00  0.000000E+00  0.000000E+00  0.000000E+00  0.000000E+00  0.000000E+00  0.000000E+00  0.000000E+00  6.849002E-01  7.319009E-04 -2.470415E-04  6.848998E-01                                                                                                                                                                                                                                                                                                                                                                                                                                                                                              
  1.250000E+02  1.250000E+02 -4.975000E+03  8.725077E-07 -1.587917E-09 -6.104281E-10  8.725061E-07  4.939890E-09 -8.997151E-12 -3.458704E-12  4.939880E-09  0.000000E+00  0.000000E+00  0.000000E+00  0.000000E+00  0.000000E+00  0.000000E+00  0.000000E+00  0.000000E+00  1.035157E+00 -1.471954E-03 -5.748513E-04  1.035155E+00                                                                                                                                                                                                                                                                                                                                                                                                                                                                                              
  3.750000E+02  1.250000E+02 -4.975000E+03  8.689830E-07 -3.498343E-09 -2.808363E-10  8.689759E-07  4.919325E-09 -1.982156E-11 -1.591219E-12  4.919285E-09  0.000000E+00  0.000000E+00  0.000000E+00  0.000000E+00  0.000000E+00  0.000000E+00  0.000000E+00  0.000000E+00  1.035563E+00 -3.249668E-03 -2.771569E-04  1.035558E+00                                                                                                                                                                                                                                                                                                                                                                                                                                                                                              
  6.250000E+02  1.250000E+02 -4.975000E+03  8.652649E-07 -3.061519E-09  9.132548E-11  8.652594E-07  4.897761E-09 -1.734643E-11  5.174469E-13  4.897730E-09  0.000000E+00  0.000000E+00  0.000000E+00  0.000000E+00  0.000000E+00  0.000000E+00  0.000000E+00  0.000000E+00  1.035220E+00 -2.854398E-03  6.805887E-05  1.035216E+00                                                                                                                                                                                                                                                                                                                                                                                                                                                                                              
  8.750000E+02  1.250000E+02 -4.975000E+03  8.636499E-07 -1.327853E-09  1.809755E-10  8.636489E-07  4.888523E-09 -7.523532E-12  1.025397E-12  4.888517E-09  0.000000E+00  0.000000E+00  0.000000E+00  0.000000E+00  0.000000E+00  0.000000E+00  0.000000E+00  0.000000E+00  1.034227E+00 -1.242666E-03  1.598639E-04  1.034226E+00                                                                                                                                                                                                                                                                                                                                                                                                                                                                                              
  1.050000E+03  1.250000E+02 -4.975000E+03  8.636245E-07 -3.903262E-16  1.768701E-10  8.636245E-07  4.888414E-09 -2.211567E-18  1.002135E-12  4.888414E-09  0.000000E+00  0.000000E+00  0.000000E+00  0.000000E+00  0.000000E+00  0.000000E+00  0.000000E+00  0.000000E+00  1.033961E+00 -2.862448E-10  1.586098E-04  1.033961E+00                                                                                                                                                                                                                                                                                                                                                                                                                                                                                              
  1.225000E+03  1.250000E+02 -4.975000E+03  8.636499E-07  1.327852E-09  1.809756E-10  8.636489E-07  4.888523E-09  7.523527E-12  1.025397E-12  4.888517E-09  0.000000E+00  0.000000E+00  0.000000E+00  0.000000E+00  0.000000E+00  0.000000E+00  0.000000E+00  0.000000E+00  1.034227E+00  1.242665E-03  1.598638E-04  1.034226E+00                                                                                                                                                                                                                                                                                                                                                                                                                                                                                              
  1.475000E+03  1.250000E+02 -4.975000E+03  8.652649E-07  3.061518E-09  9.132562E-11  8.652594E-07  4.897761E-09  1.734643E-11  5.174477E-13  4.897730E-09  0.000000E+00  0.000000E+00  0.000000E+00  0.000000E+00  0.000000E+00  0.000000E+00  0.000000E+00  0.000000E+00  1.035220E+00  2.854397E-03  6.805867E-05  1.035216E+00                                                                                                                                                                                                                                                                                                                                                                                                                                                                                              
  1.725000E+03  1.250000E+02 -4.975000E+03  8.689830E-07  3.498343E-09 -2.808361E-10  8.689759E-07  4.919326E-09  1.982156E-11 -1.591217E-12  4.919285E-09  0.000000E+00  0.000000E+00  0.000000E+00  0.000000E+00  0.000000E+00  0.000000E+00  0.000000E+00  0.000000E+00  1.035563E+00  3.249667E-03 -2.771569E-04  1.035558E+00                                                                                                                                                                                                                                                                                                                                                                                                                                                                                              
  1.975000E+03  1.250000E+02 -4.975000E+03  8.725077E-07  1.587917E-09 -6.104279E-10  8.725061E-07  4.939890E-09  8.997150E-12 -3.458703E-12  4.939880E-09  0.000000E+00  0.000000E+00  0.000000E+00  0.000000E+00  0.000000E+00  0.000000E+00  0.000000E+00  0.000000E+00  1.035157E+00  1.471954E-03 -5.748507E-04  1.035155E+00                                                                                                                                                                                                                                                                                                                                                                                                                                                                                              
  1.250000E+02  1.250000E+02 -4.725000E+03  1.081752E-06 -3.591633E-09 -1.808849E-09  1.081744E-06  6.036473E-09 -2.015003E-11 -1.015028E-11  6.036431E-09  0.000000E+00  0.000000E+00  0.000000E+00  0.000000E+00  0.000000E+00  0.000000E+00  0.000000E+00  0.000000E+00  1.509168E+00  5.554149E-04 -1.728573E-03  1.509167E+00                                                                                                                                                                                                                                                                                                                                                                                                                                                                                              
  3.750000E+02  1.250000E+02 -4.725000E+03  1.057457E-06 -7.630103E-09 -6.334621E-10  1.057429E-06  5.876761E-09 -4.279804E-11 -3.553621E-12  5.876604E-09  0.000000E+00  0.000000E+00  0.000000E+00  0.000000E+00  0.000000E+00  0.000000E+00  0.000000E+00  0.000000E+00  1.719770E+00  1.520310E-04 -3.135196E-03  1.719767E+00                                                                                                                                                                                                                                                                                                                                                                                                                                                                                              
  6.250000E+02  1.250000E+02 -4.725000E+03  1.027359E-06 -6.109248E-09  7.538030E-10  1.027340E-06  5.682803E-09 -3.425856E-11  4.227496E-12  5.682698E-09  0.000000E+00  0.000000E+00  0.000000E+00  0.000000E+00  0.000000E+00  0.000000E+00  0.000000E+00  0.000000E+00  2.002606E+00 -1.700364E-03 -3.040870E-03  2.002603E+00                                                                                                                                                                                                                                                                                                                                                                                                                                                                                              
  8.750000E+02  1.250000E+02 -4.725000E+03  1.011865E-06 -2.249050E-09  9.002715E-10  1.011862E-06  5.584292E-09 -1.261009E-11  5.048140E-12  5.584276E-09  0.000000E+00  0.000000E+00  0.000000E+00  0.000000E+00  0.000000E+00  0.000000E+00  0.000000E+00  0.000000E+00  2.166198E+00 -1.798977E-03 -1.318388E-03  2.166197E+00                                                                                                                                                                                                                                                                                                                                                                                                                                                                                              
  1.050000E+03  1.250000E+02 -4.725000E+03  1.013227E-06  4.902306E-17  7.984379E-10  1.013227E-06  5.592479E-09  2.749268E-19  4.477066E-12  5.592477E-09  0.000000E+00  0.000000E+00  0.000000E+00  0.000000E+00  0.000000E+00  0.000000E+00  0.000000E+00  0.000000E+00  2.157739E+00 -1.649991E-09 -7.168839E-04  2.157738E+00                                                                                                                                                                                                                                                                                                                                                                                                                                                                                              
  1.225000E+03  1.250000E+02 -4.725000E+03  1.011865E-06  2.249049E-09  9.002716E-10  1.011862E-06  5.584292E-09  1.261008E-11  5.048141E-12  5.584276E-09  0.000000E+00  0.000000E+00  0.000000E+00  0.000000E+00  0.000000E+00  0.000000E+00  0.000000E+00  0.000000E+00  2.166198E+00  1.798976E-03 -1.318388E-03  2.166197E+00                                                                                                                                                                                                                                                                                                                                                                                                                                                                                              
  1.475000E+03  1.250000E+02 -4.725000E+03  1.027359E-06  6.109247E-09  7.538033E-10  1.027340E-06  5.682803E-09  3.425855E-11  4.227498E-12  5.682698E-09  0.000000E+00  0.000000E+00  0.000000E+00  0.000000E+00  0.000000E+00  0.000000E+00  0.000000E+00  0.000000E+00  2.002606E+00  1.700365E-03 -3.040871E-03  2.002603E+00                                                                                                                                                                                                                                                                                                                                                                                                                                                                                              
  1.725000E+03  1.250000E+02 -4.725000E+03  1.057457E-06  7.630103E-09 -6.334616E-10  1.057429E-06  5.876761E-09  4.279803E-11 -3.553618E-12  5.876604E-09  0.000000E+00  0.000000E+00  0.000000E+00  0.000000E+00  0.000000E+00  0.000000E+00  0.000000E+00  0.000000E+00  1.719770E+00 -1.520297E-04 -3.135199E-03  1.719767E+00                                                                                                                                                                                                                                                                                                                                                                                                                                                                                              