Title="TOUGHREACT V3.30-OMP flowvector.tec: Liq & Gas Fluxes (kg/s/m^2), Pore Velocities (m/s), & Heat Fluxes (J/s/m2)"                                                                                                                                                                                                                                                                                                                                                                                                                                                                                                                                                                                                                                                                                                         
Variables= "X(m)"     "Y(m)"      "Z(m)"     "FluxLiq"   "FluxLiq_X"   "FluxLiq_Y"   "FluxLiq_Z"   "PorVelLiq"  "PorVelLiqX"  "PorVelLiqY"  "PorVelLiqZ"     "FluxGas"   "FluxGas_X"   "FluxGas_Y"   "FluxGas_Z"   "PorVelGas"  "PorVelGasX"  "PorVelGasY"  "PorVelGasZ"    "HeatFlux"  "HeatFlux_X"  "HeatFlux_Y"  "HeatFlux_Z"                                                                                                                                                                                                                                                                                                                                                                                                                                                                                                
Zone T= "5.18400000E+05 sec" I=     9 J=    10 K=    23 F=Point
  1.250000E+02  1.250000E+02 -5.425000E+03  4.946151E-07 -5.533271E-16 -1.137394E-18  4.946151E-07  2.831417E-09 -3.180736E-18 -6.538177E-21  2.831417E-09  0.000000E+00  0.000000E+00  0.000000E+00  0.000000E+00  0.000000E+00  0.000000E+00  0.000000E+00  0.000000E+00  6.034303E-01 -5.769170E-10 -1.158251E-12  6.034303E-01                                                                                                                                                                                                                                                                                                                                                                                                                                                                                              
  3.750000E+02  1.250000E+02 -5.425000E+03  4.946151E-07  1.862347E-15 -5.101464E-16  4.946151E-07  2.831417E-09  1.070548E-17 -2.932517E-18  2.831417E-09  0.000000E+00  0.000000E+00  0.000000E+00  0.000000E+00  0.000000E+00  0.000000E+00  0.000000E+00  0.000000E+00  6.034303E-01  1.945679E-09 -5.317863E-10  6.034303E-01                                                                                                                                                                                                                                                                                                                                                                                                                                                                                              
  6.250000E+02  1.250000E+02 -5.425000E+03  4.946151E-07 -2.744240E-16  1.610469E-19  4.946151E-07  2.831417E-09 -1.577494E-18  9.257595E-22  2.831417E-09  0.000000E+00  0.000000E+00  0.000000E+00  0.000000E+00  0.000000E+00  0.000000E+00  0.000000E+00  0.000000E+00  6.034303E-01 -2.838466E-10  1.642038E-13  6.034303E-01                                                                                                                                                                                                                                                                                                                                                                                                                                                                                              
  8.750000E+02  1.250000E+02 -5.425000E+03  4.946151E-07 -2.150461E-15  4.136893E-16  4.946151E-07  2.831417E-09 -1.236168E-17  2.378045E-18  2.831417E-09  0.000000E+00  0.000000E+00  0.000000E+00  0.000000E+00  0.000000E+00  0.000000E+00  0.000000E+00  0.000000E+00  6.034303E-01 -2.256956E-09  4.266451E-10  6.034303E-01                                                                                                                                                                                                                                                                                                                                                                                                                                                                                              
  1.050000E+03  1.250000E+02 -5.425000E+03  4.946151E-07 -4.313757E-20 -1.893107E-16  4.946151E-07  2.831417E-09 -2.479713E-22 -1.088230E-18  2.831417E-09  0.000000E+00  0.000000E+00  0.000000E+00  0.000000E+00  0.000000E+00  0.000000E+00  0.000000E+00  0.000000E+00  6.034303E-01 -4.390703E-14 -1.881573E-10  6.034303E-01                                                                                                                                                                                                                                                                                                                                                                                                                                                                                              
  1.225000E+03  1.250000E+02 -5.425000E+03  4.946151E-07  2.149492E-15  4.133471E-16  4.946151E-07  2.831417E-09  1.235610E-17  2.376078E-18  2.831417E-09  0.000000E+00  0.000000E+00  0.000000E+00  0.000000E+00  0.000000E+00  0.000000E+00  0.000000E+00  0.000000E+00  6.034303E-01  2.255969E-09  4.262965E-10  6.034303E-01                                                                                                                                                                                                                                                                                                                                                                                                                                                                                              
  1.475000E+03  1.250000E+02 -5.425000E+03  4.946151E-07  6.829397E-17 -1.197283E-16  4.946151E-07  2.831417E-09  3.925799E-19 -6.882443E-19  2.831417E-09  0.000000E+00  0.000000E+00  0.000000E+00  0.000000E+00  0.000000E+00  0.000000E+00  0.000000E+00  0.000000E+00  6.034303E-01  7.355969E-11 -1.225040E-10  6.034303E-01                                                                                                                                                                                                                                                                                                                                                                                                                                                                                              
  1.725000E+03  1.250000E+02 -5.425000E+03  4.946151E-07 -1.587993E-15  3.033722E-17  4.946151E-07  2.831417E-09 -9.128394E-18  1.743899E-19  2.831417E-09  0.000000E+00  0.000000E+00  0.000000E+00  0.000000E+00  0.000000E+00  0.000000E+00  0.000000E+00  0.000000E+00  6.034303E-01 -1.655128E-09  3.164005E-11  6.034303E-01                                                                                                                                                                                                                                                                                                                                                                                                                                                                                              
  1.975000E+03  1.250000E+02 -5.425000E+03  4.946151E-07  1.032885E-15 -2.013087E-20  4.946151E-07  2.831417E-09  5.937417E-18 -1.157199E-22  2.831417E-09  0.000000E+00  0.000000E+00  0.000000E+00  0.000000E+00  0.000000E+00  0.000000E+00  0.000000E+00  0.000000E+00  6.034303E-01  1.076812E-09 -2.048995E-14  6.034303E-01                                                                                                                                                                                                                                                                                                                                                                                                                                                                                              
  1.250000E+02  1.250000E+02 -5.225000E+03  9.627157E-07 -1.785581E-17 -1.069473E-16  9.627157E-07  5.486480E-09 -1.017909E-19 -6.096762E-19  5.486480E-09  0.000000E+00  0.000000E+00  0.000000E+00  0.000000E+00  0.000000E+00  0.000000E+00  0.000000E+00  0.000000E+00  1.163232E+00 -1.787520E-11 -1.077866E-10  1.163232E+00                                                                                                                                                                                                                                                                                                                                                                                                                                                                                              
  3.750000E+02  1.250000E+02 -5.225000E+03  9.627157E-07  2.800272E-17  1.329858E-16  9.627157E-07  5.486480E-09  1.596356E-19  7.581142E-19  5.486480E-09  0.000000E+00  0.000000E+00  0.000000E+00  0.000000E+00  0.000000E+00  0.000000E+00  0.000000E+00  0.000000E+00  1.163232E+00  2.734855E-11  1.338353E-10  1.163232E+00                                                                                                                                                                                                                                                                                                                                                                                                                                                                                              
  6.250000E+02  1.250000E+02 -5.225000E+03  9.627157E-07  8.866707E-17  8.148131E-17  9.627157E-07  5.486480E-09  5.054657E-19  4.645018E-19  5.486480E-09  0.000000E+00  0.000000E+00  0.000000E+00  0.000000E+00  0.000000E+00  0.000000E+00  0.000000E+00  0.000000E+00  1.163232E+00  8.820133E-11  8.213489E-11  1.163232E+00                                                                                                                                                                                                                                                                                                                                                                                                                                                                                              
  8.750000E+02  1.250000E+02 -5.225000E+03  9.627157E-07 -1.931256E-16  1.775710E-17  9.627157E-07  5.486481E-09 -1.100954E-18  1.012282E-19  5.486481E-09  0.000000E+00  0.000000E+00  0.000000E+00  0.000000E+00  0.000000E+00  0.000000E+00  0.000000E+00  0.000000E+00  1.163232E+00 -1.960997E-10  1.795105E-11  1.163232E+00                                                                                                                                                                                                                                                                                                                                                                                                                                                                                              
  1.050000E+03  1.250000E+02 -5.225000E+03  9.627157E-07 -4.568650E-18  3.517861E-17  9.627157E-07  5.486481E-09 -2.604457E-20  2.005432E-19  5.486481E-09  0.000000E+00  0.000000E+00  0.000000E+00  0.000000E+00  0.000000E+00  0.000000E+00  0.000000E+00  0.000000E+00  1.163232E+00 -4.480754E-12  3.548406E-11  1.163232E+00                                                                                                                                                                                                                                                                                                                                                                                                                                                                                              
  1.225000E+03  1.250000E+02 -5.225000E+03  9.627157E-07  1.596461E-16  1.184465E-18  9.627157E-07  5.486481E-09  9.100971E-19  6.752297E-21  5.486481E-09  0.000000E+00  0.000000E+00  0.000000E+00  0.000000E+00  0.000000E+00  0.000000E+00  0.000000E+00  0.000000E+00  1.163232E+00  1.624181E-10  1.189899E-12  1.163232E+00                                                                                                                                                                                                                                                                                                                                                                                                                                                                                              
  1.475000E+03  1.250000E+02 -5.225000E+03  9.627157E-07 -4.986597E-17  1.372005E-18  9.627157E-07  5.486480E-09 -2.842717E-19  7.821411E-21  5.486480E-09  0.000000E+00  0.000000E+00  0.000000E+00  0.000000E+00  0.000000E+00  0.000000E+00  0.000000E+00  0.000000E+00  1.163232E+00 -4.953900E-11  1.458242E-12  1.163232E+00                                                                                                                                                                                                                                                                                                                                                                                                                                                                                              
  1.725000E+03  1.250000E+02 -5.225000E+03  9.627157E-07 -3.724155E-17 -8.348503E-17  9.627157E-07  5.486481E-09 -2.123035E-19 -4.759244E-19  5.486481E-09  0.000000E+00  0.000000E+00  0.000000E+00  0.000000E+00  0.000000E+00  0.000000E+00  0.000000E+00  0.000000E+00  1.163232E+00 -3.666773E-11 -8.387855E-11  1.163232E+00                                                                                                                                                                                                                                                                                                                                                                                                                                                                                              
  1.975000E+03  1.250000E+02 -5.225000E+03  9.627157E-07 -5.909493E-17 -1.964238E-17  9.627157E-07  5.486480E-09 -3.368834E-19 -1.119756E-19  5.486480E-09  0.000000E+00  0.000000E+00  0.000000E+00  0.000000E+00  0.000000E+00  0.000000E+00  0.000000E+00  0.000000E+00  1.163232E+00 -5.930721E-11 -1.968722E-11  1.163232E+00                                                                                                                                                                                                                                                                                                                                                                                                                                                                                              
  1.250000E+02  1.250000E+02 -4.975000E+03  9.234738E-07  1.638498E-15 -8.722107E-17  9.234738E-07  5.212502E-09  9.246962E-18 -4.922374E-19  5.212502E-09  0.000000E+00  0.000000E+00  0.000000E+00  0.000000E+00  0.000000E+00  0.000000E+00  0.000000E+00  0.000000E+00  1.086919E+00  1.539829E-09 -8.375711E-11  1.086919E+00                                                                                                                                                                                                                                                                                                                                                                                                                                                                                              
  3.750000E+02  1.250000E+02 -4.975000E+03  9.234740E-07  4.619864E-15 -1.492748E-17  9.234740E-07  5.212504E-09  2.607248E-17 -8.424415E-20  5.212504E-09  0.000000E+00  0.000000E+00  0.000000E+00  0.000000E+00  0.000000E+00  0.000000E+00  0.000000E+00  0.000000E+00  1.086919E+00  4.335096E-09 -1.410232E-11  1.086919E+00                                                                                                                                                                                                                                                                                                                                                                                                                                                                                              
  6.250000E+02  1.250000E+02 -4.975000E+03  9.234745E-07  7.662102E-15 -1.456054E-16  9.234745E-07  5.212506E-09  4.324154E-17 -8.217329E-19  5.212506E-09  0.000000E+00  0.000000E+00  0.000000E+00  0.000000E+00  0.000000E+00  0.000000E+00  0.000000E+00  0.000000E+00  1.086919E+00  7.189123E-09 -1.398903E-10  1.086919E+00                                                                                                                                                                                                                                                                                                                                                                                                                                                                                              
  8.750000E+02  1.250000E+02 -4.975000E+03  9.234751E-07  1.039210E-14  7.804749E-17  9.234751E-07  5.212509E-09  5.864843E-17  4.404657E-19  5.212509E-09  0.000000E+00  0.000000E+00  0.000000E+00  0.000000E+00  0.000000E+00  0.000000E+00  0.000000E+00  0.000000E+00  1.086920E+00  9.753446E-09  7.557533E-11  1.086920E+00                                                                                                                                                                                                                                                                                                                                                                                                                                                                                              
  1.050000E+03  1.250000E+02 -4.975000E+03  9.234756E-07 -9.276502E-18 -3.308253E-17  9.234756E-07  5.212512E-09 -5.235250E-20 -1.867033E-19  5.212512E-09  0.000000E+00  0.000000E+00  0.000000E+00  0.000000E+00  0.000000E+00  0.000000E+00  0.000000E+00  0.000000E+00  1.086920E+00 -9.131860E-12 -3.191966E-11  1.086920E+00                                                                                                                                                                                                                                                                                                                                                                                                                                                                                              
  1.225000E+03  1.250000E+02 -4.975000E+03  9.234751E-07 -1.037139E-14 -1.150204E-16  9.234751E-07  5.212509E-09 -5.853159E-17 -6.491245E-19  5.212509E-09  0.000000E+00  0.000000E+00  0.000000E+00  0.000000E+00  0.000000E+00  0.000000E+00  0.000000E+00  0.000000E+00  1.086920E+00 -9.733218E-09 -1.100198E-10  1.086920E+00                                                                                                                                                                                                                                                                                                                                                                                                                                                                                              
  1.475000E+03  1.250000E+02 -4.975000E+03  9.234744E-07 -7.665387E-15  1.127438E-16  9.234744E-07  5.212506E-09 -4.326008E-17  6.362765E-19  5.212506E-09  0.000000E+00  0.000000E+00  0.000000E+00  0.000000E+00  0.000000E+00  0.000000E+00  0.000000E+00  0.000000E+00  1.086919E+00 -7.192026E-09  1.087531E-10  1.086919E+00                                                                                                                                                                                                                                                                                                                                                                                                                                                                                              
  1.725000E+03  1.250000E+02 -4.975000E+03  9.234740E-07 -4.668210E-15 -1.824150E-17  9.234740E-07  5.212504E-09 -2.634533E-17 -1.029470E-19  5.212504E-09  0.000000E+00  0.000000E+00  0.000000E+00  0.000000E+00  0.000000E+00  0.000000E+00  0.000000E+00  0.000000E+00  1.086919E+00 -4.381626E-09 -1.787256E-11  1.086919E+00                                                                                                                                                                                                                                                                                                                                                                                                                                                                                              
  1.975000E+03  1.250000E+02 -4.975000E+03  9.234738E-07 -1.653579E-15  4.619451E-17  9.234738E-07  5.212502E-09 -9.332073E-18  2.607015E-19  5.212502E-09  0.000000E+00  0.000000E+00  0.000000E+00  0.000000E+00  0.000000E+00  0.000000E+00  0.000000E+00  0.000000E+00  1.086919E+00 -1.554096E-09  4.457043E-11  1.086919E+00                                                                                                                                                                                                                                                                                                                                                                                                                                                                                              
  1.250000E+02  1.250000E+02 -4.725000E+03  4.416985E-06  2.011178E-13 -4.459717E-16  4.416985E-06  2.463566E-08  1.124098E-15 -2.492647E-18  2.463566E-08  0.000000E+00  0.000000E+00  0.000000E+00  0.000000E+00  0.000000E+00  0.000000E+00  0.000000E+00  0.000000E+00  4.168477E+00  1.799219E-07 -4.408189E-10  4.168477E+00                                                                                                                                                                                                                                                                                                                                                                                                                                                                                              
  3.750000E+02  1.250000E+02 -4.725000E+03  4.416986E-06  5.886926E-13 -8.669720E-16  4.416986E-06  2.463567E-08  3.290350E-15 -4.845723E-18  2.463567E-08  0.000000E+00  0.000000E+00  0.000000E+00  0.000000E+00  0.000000E+00  0.000000E+00  0.000000E+00  0.000000E+00  4.168479E+00  5.263207E-07 -8.102991E-10  4.168479E+00                                                                                                                                                                                                                                                                                                                                                                                                                                                                                              
  6.250000E+02  1.250000E+02 -4.725000E+03  4.416989E-06  9.787123E-13 -3.413529E-16  4.416989E-06  2.463568E-08  5.470267E-15 -1.907906E-18  2.463568E-08  0.000000E+00  0.000000E+00  0.000000E+00  0.000000E+00  0.000000E+00  0.000000E+00  0.000000E+00  0.000000E+00  4.168481E+00  8.750429E-07 -2.928832E-10  4.168481E+00                                                                                                                                                                                                                                                                                                                                                                                                                                                                                              
  8.750000E+02  1.250000E+02 -4.725000E+03  4.416993E-06  1.322773E-12 -1.972551E-16  4.416993E-06  2.463571E-08  7.393307E-15 -1.102508E-18  2.463571E-08  0.000000E+00  0.000000E+00  0.000000E+00  0.000000E+00  0.000000E+00  0.000000E+00  0.000000E+00  0.000000E+00  4.168485E+00  1.182510E-06 -1.904347E-10  4.168485E+00                                                                                                                                                                                                                                                                                                                                                                                                                                                                                              
  1.050000E+03  1.250000E+02 -4.725000E+03  4.416997E-06 -9.846382E-16  1.773404E-15  4.416997E-06  2.463573E-08 -5.503389E-18  9.911999E-18  2.463573E-08  0.000000E+00  0.000000E+00  0.000000E+00  0.000000E+00  0.000000E+00  0.000000E+00  0.000000E+00  0.000000E+00  4.168484E+00 -9.333201E-10  1.612704E-09  4.168484E+00                                                                                                                                                                                                                                                                                                                                                                                                                                                                                              
  1.225000E+03  1.250000E+02 -4.725000E+03  4.416993E-06 -1.326977E-12 -6.655165E-15  4.416993E-06  2.463571E-08 -7.416807E-15 -3.719738E-17  2.463571E-08  0.000000E+00  0.000000E+00  0.000000E+00  0.000000E+00  0.000000E+00  0.000000E+00  0.000000E+00  0.000000E+00  4.168485E+00 -1.186327E-06 -6.141866E-09  4.168485E+00                                                                                                                                                                                                                                                                                                                                                                                                                                                                                              
  1.475000E+03  1.250000E+02 -4.725000E+03  4.416989E-06 -9.811864E-13  2.114385E-15  4.416989E-06  2.463568E-08 -5.484095E-15  1.181782E-17  2.463568E-08  0.000000E+00  0.000000E+00  0.000000E+00  0.000000E+00  0.000000E+00  0.000000E+00  0.000000E+00  0.000000E+00  4.168481E+00 -8.772933E-07  1.877036E-09  4.168481E+00                                                                                                                                                                                                                                                                                                                                                                                                                                                                                              
  1.725000E+03  1.250000E+02 -4.725000E+03  4.416986E-06 -5.823835E-13  2.438667E-15  4.416986E-06  2.463567E-08 -3.255087E-15  1.363032E-17  2.463567E-08  0.000000E+00  0.000000E+00  0.000000E+00  0.000000E+00  0.000000E+00  0.000000E+00  0.000000E+00  0.000000E+00  4.168479E+00 -5.206383E-07  2.208956E-09  4.168479E+00                                                                                                                                                                                                                                                                                                                                                                                                                                                                                              