Title="TOUGHREACT V3.30-OMP flowvector.tec: Liq & Gas Fluxes (kg/s/m^2), Pore Velocities (m/s), & Heat Fluxes (J/s/m2)"                                                                                                                                                                                                                                                                                                                                                                                                                                                                                                                                                                                                                                                                                                         
Variables= "X(m)"     "Y(m)"      "Z(m)"     "FluxLiq"   "FluxLiq_X"   "FluxLiq_Y"   "FluxLiq_Z"   "PorVelLiq"  "PorVelLiqX"  "PorVelLiqY"  "PorVelLiqZ"     "FluxGas"   "FluxGas_X"   "FluxGas_Y"   "FluxGas_Z"   "PorVelGas"  "PorVelGasX"  "PorVelGasY"  "PorVelGasZ"    "HeatFlux"  "HeatFlux_X"  "HeatFlux_Y"  "HeatFlux_Z"                                                                                                                                                                                                                                                                                                                                                                                                                                                                                                
Zone T= "5.00000000E-02 sec" I=     9 J=    10 K=    23 F=Point
  1.250000E+02  1.250000E+02 -5.425000E+03  5.036904E-07  0.000000E+00  0.000000E+00  5.036904E-07  2.883330E-09  0.000000E+00  0.000000E+00  2.883330E-09  0.000000E+00  0.000000E+00  0.000000E+00  0.000000E+00  0.000000E+00  0.000000E+00  0.000000E+00  0.000000E+00  6.126772E-01  0.000000E+00  0.000000E+00  6.126772E-01                                                                                                                                                                                                                                                                                                                                                                                                                                                                                              
  3.750000E+02  1.250000E+02 -5.425000E+03  5.036904E-07  0.000000E+00  0.000000E+00  5.036904E-07  2.883330E-09  0.000000E+00  0.000000E+00  2.883330E-09  0.000000E+00  0.000000E+00  0.000000E+00  0.000000E+00  0.000000E+00  0.000000E+00  0.000000E+00  0.000000E+00  6.126772E-01  0.000000E+00  0.000000E+00  6.126772E-01                                                                                                                                                                                                                                                                                                                                                                                                                                                                                              
  6.250000E+02  1.250000E+02 -5.425000E+03  5.036904E-07  0.000000E+00  0.000000E+00  5.036904E-07  2.883330E-09  0.000000E+00  0.000000E+00  2.883330E-09  0.000000E+00  0.000000E+00  0.000000E+00  0.000000E+00  0.000000E+00  0.000000E+00  0.000000E+00  0.000000E+00  6.126772E-01  0.000000E+00  0.000000E+00  6.126772E-01                                                                                                                                                                                                                                                                                                                                                                                                                                                                                              
  8.750000E+02  1.250000E+02 -5.425000E+03  5.036904E-07  0.000000E+00  0.000000E+00  5.036904E-07  2.883330E-09  0.000000E+00  0.000000E+00  2.883330E-09  0.000000E+00  0.000000E+00  0.000000E+00  0.000000E+00  0.000000E+00  0.000000E+00  0.000000E+00  0.000000E+00  6.126772E-01  0.000000E+00  0.000000E+00  6.126772E-01                                                                                                                                                                                                                                                                                                                                                                                                                                                                                              
  1.050000E+03  1.250000E+02 -5.425000E+03  5.036904E-07  0.000000E+00  0.000000E+00  5.036904E-07  2.883330E-09  0.000000E+00  0.000000E+00  2.883330E-09  0.000000E+00  0.000000E+00  0.000000E+00  0.000000E+00  0.000000E+00  0.000000E+00  0.000000E+00  0.000000E+00  6.126772E-01  0.000000E+00  0.000000E+00  6.126772E-01                                                                                                                                                                                                                                                                                                                                                                                                                                                                                              
  1.225000E+03  1.250000E+02 -5.425000E+03  5.036904E-07  0.000000E+00  0.000000E+00  5.036904E-07  2.883330E-09  0.000000E+00  0.000000E+00  2.883330E-09  0.000000E+00  0.000000E+00  0.000000E+00  0.000000E+00  0.000000E+00  0.000000E+00  0.000000E+00  0.000000E+00  6.126772E-01  0.000000E+00  0.000000E+00  6.126772E-01                                                                                                                                                                                                                                                                                                                                                                                                                                                                                              
  1.475000E+03  1.250000E+02 -5.425000E+03  5.036904E-07  0.000000E+00  0.000000E+00  5.036904E-07  2.883330E-09  0.000000E+00  0.000000E+00  2.883330E-09  0.000000E+00  0.000000E+00  0.000000E+00  0.000000E+00  0.000000E+00  0.000000E+00  0.000000E+00  0.000000E+00  6.126772E-01  0.000000E+00  0.000000E+00  6.126772E-01                                                                                                                                                                                                                                                                                                                                                                                                                                                                                              
  1.725000E+03  1.250000E+02 -5.425000E+03  5.036904E-07  0.000000E+00  0.000000E+00  5.036904E-07  2.883330E-09  0.000000E+00  0.000000E+00  2.883330E-09  0.000000E+00  0.000000E+00  0.000000E+00  0.000000E+00  0.000000E+00  0.000000E+00  0.000000E+00  0.000000E+00  6.126772E-01  0.000000E+00  0.000000E+00  6.126772E-01                                                                                                                                                                                                                                                                                                                                                                                                                                                                                              
  1.975000E+03  1.250000E+02 -5.425000E+03  5.036904E-07  0.000000E+00  0.000000E+00  5.036904E-07  2.883330E-09  0.000000E+00  0.000000E+00  2.883330E-09  0.000000E+00  0.000000E+00  0.000000E+00  0.000000E+00  0.000000E+00  0.000000E+00  0.000000E+00  0.000000E+00  6.126772E-01  0.000000E+00  0.000000E+00  6.126772E-01                                                                                                                                                                                                                                                                                                                                                                                                                                                                                              
  1.250000E+02  1.250000E+02 -5.225000E+03  9.717386E-07  0.000000E+00  0.000000E+00  9.717386E-07  5.538098E-09  0.000000E+00  0.000000E+00  5.538098E-09  0.000000E+00  0.000000E+00  0.000000E+00  0.000000E+00  0.000000E+00  0.000000E+00  0.000000E+00  0.000000E+00  1.172428E+00  0.000000E+00  0.000000E+00  1.172428E+00                                                                                                                                                                                                                                                                                                                                                                                                                                                                                              
  3.750000E+02  1.250000E+02 -5.225000E+03  9.717386E-07  0.000000E+00  0.000000E+00  9.717386E-07  5.538098E-09  0.000000E+00  0.000000E+00  5.538098E-09  0.000000E+00  0.000000E+00  0.000000E+00  0.000000E+00  0.000000E+00  0.000000E+00  0.000000E+00  0.000000E+00  1.172428E+00  0.000000E+00  0.000000E+00  1.172428E+00                                                                                                                                                                                                                                                                                                                                                                                                                                                                                              
  6.250000E+02  1.250000E+02 -5.225000E+03  9.717386E-07  0.000000E+00  0.000000E+00  9.717386E-07  5.538098E-09  0.000000E+00  0.000000E+00  5.538098E-09  0.000000E+00  0.000000E+00  0.000000E+00  0.000000E+00  0.000000E+00  0.000000E+00  0.000000E+00  0.000000E+00  1.172428E+00  0.000000E+00  0.000000E+00  1.172428E+00                                                                                                                                                                                                                                                                                                                                                                                                                                                                                              
  8.750000E+02  1.250000E+02 -5.225000E+03  9.717386E-07  0.000000E+00  0.000000E+00  9.717386E-07  5.538098E-09  0.000000E+00  0.000000E+00  5.538098E-09  0.000000E+00  0.000000E+00  0.000000E+00  0.000000E+00  0.000000E+00  0.000000E+00  0.000000E+00  0.000000E+00  1.172428E+00  0.000000E+00  0.000000E+00  1.172428E+00                                                                                                                                                                                                                                                                                                                                                                                                                                                                                              
  1.050000E+03  1.250000E+02 -5.225000E+03  9.717386E-07  0.000000E+00  0.000000E+00  9.717386E-07  5.538098E-09  0.000000E+00  0.000000E+00  5.538098E-09  0.000000E+00  0.000000E+00  0.000000E+00  0.000000E+00  0.000000E+00  0.000000E+00  0.000000E+00  0.000000E+00  1.172428E+00  0.000000E+00  0.000000E+00  1.172428E+00                                                                                                                                                                                                                                                                                                                                                                                                                                                                                              
  1.225000E+03  1.250000E+02 -5.225000E+03  9.717386E-07  0.000000E+00  0.000000E+00  9.717386E-07  5.538098E-09  0.000000E+00  0.000000E+00  5.538098E-09  0.000000E+00  0.000000E+00  0.000000E+00  0.000000E+00  0.000000E+00  0.000000E+00  0.000000E+00  0.000000E+00  1.172428E+00  0.000000E+00  0.000000E+00  1.172428E+00                                                                                                                                                                                                                                                                                                                                                                                                                                                                                              
  1.475000E+03  1.250000E+02 -5.225000E+03  9.717386E-07  0.000000E+00  0.000000E+00  9.717386E-07  5.538098E-09  0.000000E+00  0.000000E+00  5.538098E-09  0.000000E+00  0.000000E+00  0.000000E+00  0.000000E+00  0.000000E+00  0.000000E+00  0.000000E+00  0.000000E+00  1.172428E+00  0.000000E+00  0.000000E+00  1.172428E+00                                                                                                                                                                                                                                                                                                                                                                                                                                                                                              
  1.725000E+03  1.250000E+02 -5.225000E+03  9.717386E-07  0.000000E+00  0.000000E+00  9.717386E-07  5.538098E-09  0.000000E+00  0.000000E+00  5.538098E-09  0.000000E+00  0.000000E+00  0.000000E+00  0.000000E+00  0.000000E+00  0.000000E+00  0.000000E+00  0.000000E+00  1.172428E+00  0.000000E+00  0.000000E+00  1.172428E+00                                                                                                                                                                                                                                                                                                                                                                                                                                                                                              
  1.975000E+03  1.250000E+02 -5.225000E+03  9.717386E-07  0.000000E+00  0.000000E+00  9.717386E-07  5.538098E-09  0.000000E+00  0.000000E+00  5.538098E-09  0.000000E+00  0.000000E+00  0.000000E+00  0.000000E+00  0.000000E+00  0.000000E+00  0.000000E+00  0.000000E+00  1.172428E+00  0.000000E+00  0.000000E+00  1.172428E+00                                                                                                                                                                                                                                                                                                                                                                                                                                                                                              
  1.250000E+02  1.250000E+02 -4.975000E+03  8.956180E-07  0.000000E+00  0.000000E+00  8.956180E-07  5.056044E-09  0.000000E+00  0.000000E+00  5.056044E-09  0.000000E+00  0.000000E+00  0.000000E+00  0.000000E+00  0.000000E+00  0.000000E+00  0.000000E+00  0.000000E+00  1.060779E+00  0.000000E+00  0.000000E+00  1.060779E+00                                                                                                                                                                                                                                                                                                                                                                                                                                                                                              
  3.750000E+02  1.250000E+02 -4.975000E+03  8.956180E-07  0.000000E+00  0.000000E+00  8.956180E-07  5.056044E-09  0.000000E+00  0.000000E+00  5.056044E-09  0.000000E+00  0.000000E+00  0.000000E+00  0.000000E+00  0.000000E+00  0.000000E+00  0.000000E+00  0.000000E+00  1.060779E+00  0.000000E+00  0.000000E+00  1.060779E+00                                                                                                                                                                                                                                                                                                                                                                                                                                                                                              
  6.250000E+02  1.250000E+02 -4.975000E+03  8.956180E-07  0.000000E+00  0.000000E+00  8.956180E-07  5.056044E-09  0.000000E+00  0.000000E+00  5.056044E-09  0.000000E+00  0.000000E+00  0.000000E+00  0.000000E+00  0.000000E+00  0.000000E+00  0.000000E+00  0.000000E+00  1.060779E+00  0.000000E+00  0.000000E+00  1.060779E+00                                                                                                                                                                                                                                                                                                                                                                                                                                                                                              
  8.750000E+02  1.250000E+02 -4.975000E+03  8.956180E-07  0.000000E+00  0.000000E+00  8.956180E-07  5.056044E-09  0.000000E+00  0.000000E+00  5.056044E-09  0.000000E+00  0.000000E+00  0.000000E+00  0.000000E+00  0.000000E+00  0.000000E+00  0.000000E+00  0.000000E+00  1.060779E+00  0.000000E+00  0.000000E+00  1.060779E+00                                                                                                                                                                                                                                                                                                                                                                                                                                                                                              
  1.050000E+03  1.250000E+02 -4.975000E+03  8.956180E-07  0.000000E+00  0.000000E+00  8.956180E-07  5.056044E-09  0.000000E+00  0.000000E+00  5.056044E-09  0.000000E+00  0.000000E+00  0.000000E+00  0.000000E+00  0.000000E+00  0.000000E+00  0.000000E+00  0.000000E+00  1.060779E+00  0.000000E+00  0.000000E+00  1.060779E+00                                                                                                                                                                                                                                                                                                                                                                                                                                                                                              
  1.225000E+03  1.250000E+02 -4.975000E+03  8.956180E-07  0.000000E+00  0.000000E+00  8.956180E-07  5.056044E-09  0.000000E+00  0.000000E+00  5.056044E-09  0.000000E+00  0.000000E+00  0.000000E+00  0.000000E+00  0.000000E+00  0.000000E+00  0.000000E+00  0.000000E+00  1.060779E+00  0.000000E+00  0.000000E+00  1.060779E+00                                                                                                                                                                                                                                                                                                                                                                                                                                                                                              
  1.475000E+03  1.250000E+02 -4.975000E+03  8.956180E-07  0.000000E+00  0.000000E+00  8.956180E-07  5.056044E-09  0.000000E+00  0.000000E+00  5.056044E-09  0.000000E+00  0.000000E+00  0.000000E+00  0.000000E+00  0.000000E+00  0.000000E+00  0.000000E+00  0.000000E+00  1.060779E+00  0.000000E+00  0.000000E+00  1.060779E+00                                                                                                                                                                                                                                                                                                                                                                                                                                                                                              
  1.725000E+03  1.250000E+02 -4.975000E+03  8.956180E-07  0.000000E+00  0.000000E+00  8.956180E-07  5.056044E-09  0.000000E+00  0.000000E+00  5.056044E-09  0.000000E+00  0.000000E+00  0.000000E+00  0.000000E+00  0.000000E+00  0.000000E+00  0.000000E+00  0.000000E+00  1.060779E+00  0.000000E+00  0.000000E+00  1.060779E+00                                                                                                                                                                                                                                                                                                                                                                                                                                                                                              
  1.975000E+03  1.250000E+02 -4.975000E+03  8.956180E-07  0.000000E+00  0.000000E+00  8.956180E-07  5.056044E-09  0.000000E+00  0.000000E+00  5.056044E-09  0.000000E+00  0.000000E+00  0.000000E+00  0.000000E+00  0.000000E+00  0.000000E+00  0.000000E+00  0.000000E+00  1.060779E+00  0.000000E+00  0.000000E+00  1.060779E+00                                                                                                                                                                                                                                                                                                                                                                                                                                                                                              
  1.250000E+02  1.250000E+02 -4.725000E+03  9.758828E-07  0.000000E+00  0.000000E+00  9.758828E-07  5.455622E-09  0.000000E+00  0.000000E+00  5.455622E-09  0.000000E+00  0.000000E+00  0.000000E+00  0.000000E+00  0.000000E+00  0.000000E+00  0.000000E+00  0.000000E+00  1.091054E+00  0.000000E+00  0.000000E+00  1.091054E+00                                                                                                                                                                                                                                                                                                                                                                                                                                                                                              
  3.750000E+02  1.250000E+02 -4.725000E+03  9.758828E-07  0.000000E+00  0.000000E+00  9.758828E-07  5.455622E-09  0.000000E+00  0.000000E+00  5.455622E-09  0.000000E+00  0.000000E+00  0.000000E+00  0.000000E+00  0.000000E+00  0.000000E+00  0.000000E+00  0.000000E+00  1.091054E+00  0.000000E+00  0.000000E+00  1.091054E+00                                                                                                                                                                                                                                                                                                                                                                                                                                                                                              
  6.250000E+02  1.250000E+02 -4.725000E+03  9.758832E-07  2.795253E-20  0.000000E+00  9.758832E-07  5.455625E-09  1.562241E-22  0.000000E+00  5.455625E-09  0.000000E+00  0.000000E+00  0.000000E+00  0.000000E+00  0.000000E+00  0.000000E+00  0.000000E+00  0.000000E+00  1.091054E+00  2.498110E-14  0.000000E+00  1.091054E+00                                                                                                                                                                                                                                                                                                                                                                                                                                                                                              
  8.750000E+02  1.250000E+02 -4.725000E+03  9.759137E-07  1.718415E-18  0.000000E+00  9.759137E-07  5.455794E-09  9.604065E-21  0.000000E+00  5.455794E-09  0.000000E+00  0.000000E+00  0.000000E+00  0.000000E+00  0.000000E+00  0.000000E+00  0.000000E+00  0.000000E+00  1.091082E+00  1.536555E-12  0.000000E+00  1.091082E+00                                                                                                                                                                                                                                                                                                                                                                                                                                                                                              
  1.050000E+03  1.250000E+02 -4.725000E+03  9.775250E-07  0.000000E+00  0.000000E+00  9.775250E-07  5.464771E-09  0.000000E+00  0.000000E+00  5.464771E-09  0.000000E+00  0.000000E+00  0.000000E+00  0.000000E+00  0.000000E+00  0.000000E+00  0.000000E+00  0.000000E+00  1.092522E+00  0.000000E+00  0.000000E+00  1.092522E+00                                                                                                                                                                                                                                                                                                                                                                                                                                                                                              
  1.225000E+03  1.250000E+02 -4.725000E+03  9.759137E-07 -1.718415E-18  0.000000E+00  9.759137E-07  5.455794E-09 -9.604065E-21  0.000000E+00  5.455794E-09  0.000000E+00  0.000000E+00  0.000000E+00  0.000000E+00  0.000000E+00  0.000000E+00  0.000000E+00  0.000000E+00  1.091082E+00 -1.536555E-12  0.000000E+00  1.091082E+00                                                                                                                                                                                                                                                                                                                                                                                                                                                                                              
  1.475000E+03  1.250000E+02 -4.725000E+03  9.758832E-07 -2.795253E-20  0.000000E+00  9.758832E-07  5.455625E-09 -1.562241E-22  0.000000E+00  5.455625E-09  0.000000E+00  0.000000E+00  0.000000E+00  0.000000E+00  0.000000E+00  0.000000E+00  0.000000E+00  0.000000E+00  1.091054E+00 -2.498110E-14  0.000000E+00  1.091054E+00                                                                                                                                                                                                                                                                                                                                                                                                                                                                                              
  1.725000E+03  1.250000E+02 -4.725000E+03  9.758828E-07  0.000000E+00  0.000000E+00  9.758828E-07  5.455622E-09  0.000000E+00  0.000000E+00  5.455622E-09  0.000000E+00  0.000000E+00  0.000000E+00  0.000000E+00  0.000000E+00  0.000000E+00  0.000000E+00  0.000000E+00  1.091054E+00  0.000000E+00  0.000000E+00  1.091054E+00                                                                                                                                                                                                                                                                                                                                                                                                                                                                                              