Title="TOUGHREACT V3.30-OMP flowvector.tec: Liq & Gas Fluxes (kg/s/m^2), Pore Velocities (m/s), & Heat Fluxes (J/s/m2)"                                                                                                                                                                                                                                                                                                                                                                                                                                                                                                                                                                                                                                                                                                         
Variables= "X(m)"     "Y(m)"      "Z(m)"     "FluxLiq"   "FluxLiq_X"   "FluxLiq_Y"   "FluxLiq_Z"   "PorVelLiq"  "PorVelLiqX"  "PorVelLiqY"  "PorVelLiqZ"     "FluxGas"   "FluxGas_X"   "FluxGas_Y"   "FluxGas_Z"   "PorVelGas"  "PorVelGasX"  "PorVelGasY"  "PorVelGasZ"    "HeatFlux"  "HeatFlux_X"  "HeatFlux_Y"  "HeatFlux_Z"                                                                                                                                                                                                                                                                                                                                                                                                                                                                                                
Zone T= "1.00000000E+06 sec" I=     9 J=    10 K=    23 F=Point
  1.250000E+02  1.250000E+02 -5.425000E+03  4.864372E-07  1.640974E-16  1.317188E-15  4.864372E-07  2.784647E-09  9.433113E-19  7.571833E-18  2.784647E-09  0.000000E+00  0.000000E+00  0.000000E+00  0.000000E+00  0.000000E+00  0.000000E+00  0.000000E+00  0.000000E+00  5.950977E-01  1.745700E-10  1.359635E-09  5.950977E-01                                                                                                                                                                                                                                                                                                                                                                                                                                                                                              
  3.750000E+02  1.250000E+02 -5.425000E+03  4.864372E-07 -3.058112E-15 -6.392179E-16  4.864372E-07  2.784647E-09 -1.757951E-17 -3.674534E-18  2.784647E-09  0.000000E+00  0.000000E+00  0.000000E+00  0.000000E+00  0.000000E+00  0.000000E+00  0.000000E+00  0.000000E+00  5.950977E-01 -3.185343E-09 -6.792543E-10  5.950977E-01                                                                                                                                                                                                                                                                                                                                                                                                                                                                                              
  6.250000E+02  1.250000E+02 -5.425000E+03  4.864372E-07 -2.422840E-15  8.802256E-16  4.864372E-07  2.784647E-09 -1.392766E-17  5.059963E-18  2.784647E-09  0.000000E+00  0.000000E+00  0.000000E+00  0.000000E+00  0.000000E+00  0.000000E+00  0.000000E+00  0.000000E+00  5.950977E-01 -2.523037E-09  9.167181E-10  5.950977E-01                                                                                                                                                                                                                                                                                                                                                                                                                                                                                              
  8.750000E+02  1.250000E+02 -5.425000E+03  4.864372E-07  3.409174E-15 -1.710325E-16  4.864372E-07  2.784647E-09  1.959758E-17 -9.831777E-19  2.784647E-09  0.000000E+00  0.000000E+00  0.000000E+00  0.000000E+00  0.000000E+00  0.000000E+00  0.000000E+00  0.000000E+00  5.950977E-01  3.535456E-09 -1.877011E-10  5.950977E-01                                                                                                                                                                                                                                                                                                                                                                                                                                                                                              
  1.050000E+03  1.250000E+02 -5.425000E+03  4.864372E-07  1.967512E-16  4.255984E-16  4.864372E-07  2.784647E-09  1.131021E-18  2.446545E-18  2.784647E-09  0.000000E+00  0.000000E+00  0.000000E+00  0.000000E+00  0.000000E+00  0.000000E+00  0.000000E+00  0.000000E+00  5.950977E-01  1.816563E-10  4.592162E-10  5.950977E-01                                                                                                                                                                                                                                                                                                                                                                                                                                                                                              
  1.225000E+03  1.250000E+02 -5.425000E+03  4.864372E-07 -3.616200E-15  5.301183E-16  4.864372E-07  2.784647E-09 -2.078766E-17  3.047376E-18  2.784647E-09  0.000000E+00  0.000000E+00  0.000000E+00  0.000000E+00  0.000000E+00  0.000000E+00  0.000000E+00  0.000000E+00  5.950977E-01 -3.754241E-09  5.571203E-10  5.950977E-01                                                                                                                                                                                                                                                                                                                                                                                                                                                                                              
  1.475000E+03  1.250000E+02 -5.425000E+03  4.864372E-07  1.665836E-16  5.379462E-15  4.864372E-07  2.784647E-09  9.576030E-19  3.092375E-17  2.784647E-09  0.000000E+00  0.000000E+00  0.000000E+00  0.000000E+00  0.000000E+00  0.000000E+00  0.000000E+00  0.000000E+00  5.950977E-01  1.853809E-10  5.620197E-09  5.950977E-01                                                                                                                                                                                                                                                                                                                                                                                                                                                                                              
  1.725000E+03  1.250000E+02 -5.425000E+03  4.864372E-07 -8.687007E-16  1.595730E-15  4.864372E-07  2.784647E-09 -4.993712E-18  9.173027E-18  2.784647E-09  0.000000E+00  0.000000E+00  0.000000E+00  0.000000E+00  0.000000E+00  0.000000E+00  0.000000E+00  0.000000E+00  5.950977E-01 -9.080151E-10  1.663523E-09  5.950977E-01                                                                                                                                                                                                                                                                                                                                                                                                                                                                                              
  1.975000E+03  1.250000E+02 -5.425000E+03  4.864372E-07 -2.238430E-15  1.477370E-15  4.864372E-07  2.784647E-09 -1.286758E-17  8.492637E-18  2.784647E-09  0.000000E+00  0.000000E+00  0.000000E+00  0.000000E+00  0.000000E+00  0.000000E+00  0.000000E+00  0.000000E+00  5.950977E-01 -2.330714E-09  1.537093E-09  5.950977E-01                                                                                                                                                                                                                                                                                                                                                                                                                                                                                              
  1.250000E+02  1.250000E+02 -5.225000E+03  9.547368E-07 -1.379309E-16 -3.354997E-17  9.547368E-07  5.440838E-09 -7.863046E-19 -1.912587E-19  5.440838E-09  0.000000E+00  0.000000E+00  0.000000E+00  0.000000E+00  0.000000E+00  0.000000E+00  0.000000E+00  0.000000E+00  1.155095E+00 -1.392271E-10 -3.434047E-11  1.155095E+00                                                                                                                                                                                                                                                                                                                                                                                                                                                                                              
  3.750000E+02  1.250000E+02 -5.225000E+03  9.547368E-07  1.063649E-16  3.660391E-16  9.547368E-07  5.440838E-09  6.063560E-19  2.086684E-18  5.440838E-09  0.000000E+00  0.000000E+00  0.000000E+00  0.000000E+00  0.000000E+00  0.000000E+00  0.000000E+00  0.000000E+00  1.155095E+00  1.054732E-10  3.687191E-10  1.155095E+00                                                                                                                                                                                                                                                                                                                                                                                                                                                                                              
  6.250000E+02  1.250000E+02 -5.225000E+03  9.547368E-07  2.162339E-16 -2.500208E-17  9.547368E-07  5.440838E-09  1.232687E-18 -1.425297E-19  5.440838E-09  0.000000E+00  0.000000E+00  0.000000E+00  0.000000E+00  0.000000E+00  0.000000E+00  0.000000E+00  0.000000E+00  1.155095E+00  2.148650E-10 -2.522192E-11  1.155095E+00                                                                                                                                                                                                                                                                                                                                                                                                                                                                                              
  8.750000E+02  1.250000E+02 -5.225000E+03  9.547368E-07  1.129317E-16  8.301124E-17  9.547368E-07  5.440838E-09  6.437910E-19  4.732232E-19  5.440838E-09  0.000000E+00  0.000000E+00  0.000000E+00  0.000000E+00  0.000000E+00  0.000000E+00  0.000000E+00  0.000000E+00  1.155095E+00  1.084098E-10  8.380312E-11  1.155095E+00                                                                                                                                                                                                                                                                                                                                                                                                                                                                                              
  1.050000E+03  1.250000E+02 -5.225000E+03  9.547368E-07 -7.958476E-17 -2.241797E-16  9.547368E-07  5.440838E-09 -4.536898E-19 -1.277984E-18  5.440838E-09  0.000000E+00  0.000000E+00  0.000000E+00  0.000000E+00  0.000000E+00  0.000000E+00  0.000000E+00  0.000000E+00  1.155095E+00 -8.051786E-11 -2.262897E-10  1.155095E+00                                                                                                                                                                                                                                                                                                                                                                                                                                                                                              
  1.225000E+03  1.250000E+02 -5.225000E+03  9.547368E-07 -2.201441E-16  1.691317E-16  9.547368E-07  5.440838E-09 -1.254978E-18  9.641713E-19  5.440838E-09  0.000000E+00  0.000000E+00  0.000000E+00  0.000000E+00  0.000000E+00  0.000000E+00  0.000000E+00  0.000000E+00  1.155095E+00 -2.163972E-10  1.703065E-10  1.155095E+00                                                                                                                                                                                                                                                                                                                                                                                                                                                                                              
  1.475000E+03  1.250000E+02 -5.225000E+03  9.547368E-07  4.611516E-17  9.358259E-17  9.547368E-07  5.440838E-09  2.628893E-19  5.334875E-19  5.440838E-09  0.000000E+00  0.000000E+00  0.000000E+00  0.000000E+00  0.000000E+00  0.000000E+00  0.000000E+00  0.000000E+00  1.155095E+00  4.978343E-11  9.330315E-11  1.155095E+00                                                                                                                                                                                                                                                                                                                                                                                                                                                                                              
  1.725000E+03  1.250000E+02 -5.225000E+03  9.547368E-07 -3.401586E-16 -2.350176E-16  9.547368E-07  5.440838E-09 -1.939146E-18 -1.339768E-18  5.440838E-09  0.000000E+00  0.000000E+00  0.000000E+00  0.000000E+00  0.000000E+00  0.000000E+00  0.000000E+00  0.000000E+00  1.155095E+00 -3.403287E-10 -2.369991E-10  1.155095E+00                                                                                                                                                                                                                                                                                                                                                                                                                                                                                              
  1.975000E+03  1.250000E+02 -5.225000E+03  9.547368E-07 -3.858394E-16  2.646983E-16  9.547368E-07  5.440838E-09 -2.199560E-18  1.508969E-18  5.440838E-09  0.000000E+00  0.000000E+00  0.000000E+00  0.000000E+00  0.000000E+00  0.000000E+00  0.000000E+00  0.000000E+00  1.155095E+00 -3.877463E-10  2.666768E-10  1.155095E+00                                                                                                                                                                                                                                                                                                                                                                                                                                                                                              
  1.250000E+02  1.250000E+02 -4.975000E+03  9.487335E-07  3.270858E-15 -2.977812E-18  9.487335E-07  5.354390E-09  1.845928E-17 -1.680546E-20  5.354390E-09  0.000000E+00  0.000000E+00  0.000000E+00  0.000000E+00  0.000000E+00  0.000000E+00  0.000000E+00  0.000000E+00  1.110629E+00  3.074702E-09 -2.115391E-12  1.110629E+00                                                                                                                                                                                                                                                                                                                                                                                                                                                                                              
  3.750000E+02  1.250000E+02 -4.975000E+03  9.487337E-07  9.102077E-15 -1.687267E-16  9.487337E-07  5.354391E-09  5.136812E-17 -9.522193E-19  5.354391E-09  0.000000E+00  0.000000E+00  0.000000E+00  0.000000E+00  0.000000E+00  0.000000E+00  0.000000E+00  0.000000E+00  1.110629E+00  8.541291E-09 -1.629514E-10  1.110629E+00                                                                                                                                                                                                                                                                                                                                                                                                                                                                                              
  6.250000E+02  1.250000E+02 -4.975000E+03  9.487341E-07  1.511905E-14 -1.784766E-17  9.487341E-07  5.354393E-09  8.532530E-17 -1.007244E-19  5.354393E-09  0.000000E+00  0.000000E+00  0.000000E+00  0.000000E+00  0.000000E+00  0.000000E+00  0.000000E+00  0.000000E+00  1.110630E+00  1.418816E-08 -1.704786E-11  1.110630E+00                                                                                                                                                                                                                                                                                                                                                                                                                                                                                              
  8.750000E+02  1.250000E+02 -4.975000E+03  9.487347E-07  1.944333E-14 -4.399478E-18  9.487347E-07  5.354397E-09  1.097296E-16 -2.482872E-20  5.354397E-09  0.000000E+00  0.000000E+00  0.000000E+00  0.000000E+00  0.000000E+00  0.000000E+00  0.000000E+00  0.000000E+00  1.110630E+00  1.824079E-08 -3.661401E-12  1.110630E+00                                                                                                                                                                                                                                                                                                                                                                                                                                                                                              
  1.050000E+03  1.250000E+02 -4.975000E+03  9.487352E-07 -4.313025E-16 -1.040121E-16  9.487352E-07  5.354400E-09 -2.434082E-18 -5.869986E-19  5.354400E-09  0.000000E+00  0.000000E+00  0.000000E+00  0.000000E+00  0.000000E+00  0.000000E+00  0.000000E+00  0.000000E+00  1.110631E+00 -4.164803E-10 -1.009792E-10  1.110631E+00                                                                                                                                                                                                                                                                                                                                                                                                                                                                                              
  1.225000E+03  1.250000E+02 -4.975000E+03  9.487347E-07 -1.947459E-14 -7.252414E-18  9.487347E-07  5.354397E-09 -1.099061E-16 -4.092944E-20  5.354397E-09  0.000000E+00  0.000000E+00  0.000000E+00  0.000000E+00  0.000000E+00  0.000000E+00  0.000000E+00  0.000000E+00  1.110630E+00 -1.827026E-08 -4.457429E-12  1.110630E+00                                                                                                                                                                                                                                                                                                                                                                                                                                                                                              
  1.475000E+03  1.250000E+02 -4.975000E+03  9.487341E-07 -1.483781E-14 -1.002850E-17  9.487341E-07  5.354393E-09 -8.373810E-17 -5.659647E-20  5.354393E-09  0.000000E+00  0.000000E+00  0.000000E+00  0.000000E+00  0.000000E+00  0.000000E+00  0.000000E+00  0.000000E+00  1.110630E+00 -1.391706E-08 -9.179747E-12  1.110630E+00                                                                                                                                                                                                                                                                                                                                                                                                                                                                                              
  1.725000E+03  1.250000E+02 -4.975000E+03  9.487337E-07 -9.099138E-15 -1.179886E-16  9.487337E-07  5.354391E-09 -5.135153E-17 -6.658758E-19  5.354391E-09  0.000000E+00  0.000000E+00  0.000000E+00  0.000000E+00  0.000000E+00  0.000000E+00  0.000000E+00  0.000000E+00  1.110629E+00 -8.539500E-09 -1.127699E-10  1.110629E+00                                                                                                                                                                                                                                                                                                                                                                                                                                                                                              
  1.975000E+03  1.250000E+02 -4.975000E+03  9.487335E-07 -3.149123E-15 -5.248634E-17  9.487335E-07  5.354390E-09 -1.777227E-17 -2.962099E-19  5.354390E-09  0.000000E+00  0.000000E+00  0.000000E+00  0.000000E+00  0.000000E+00  0.000000E+00  0.000000E+00  0.000000E+00  1.110629E+00 -2.956987E-09 -4.918363E-11  1.110629E+00                                                                                                                                                                                                                                                                                                                                                                                                                                                                                              
  1.250000E+02  1.250000E+02 -4.725000E+03  4.365240E-06  2.077986E-13 -1.254998E-15  4.365240E-06  2.434975E-08  1.161522E-15 -7.015003E-18  2.434975E-08  0.000000E+00  0.000000E+00  0.000000E+00  0.000000E+00  0.000000E+00  0.000000E+00  0.000000E+00  0.000000E+00  4.123274E+00  1.859012E-07 -1.143117E-09  4.123274E+00                                                                                                                                                                                                                                                                                                                                                                                                                                                                                              
  3.750000E+02  1.250000E+02 -4.725000E+03  4.365242E-06  6.103228E-13 -2.078898E-16  4.365242E-06  2.434975E-08  3.411492E-15 -1.162032E-18  2.434975E-08  0.000000E+00  0.000000E+00  0.000000E+00  0.000000E+00  0.000000E+00  0.000000E+00  0.000000E+00  0.000000E+00  4.123276E+00  5.457680E-07 -2.101949E-10  4.123276E+00                                                                                                                                                                                                                                                                                                                                                                                                                                                                                              
  6.250000E+02  1.250000E+02 -4.725000E+03  4.365244E-06  1.010875E-12  5.611097E-16  4.365244E-06  2.434977E-08  5.650439E-15  3.136408E-18  2.434977E-08  0.000000E+00  0.000000E+00  0.000000E+00  0.000000E+00  0.000000E+00  0.000000E+00  0.000000E+00  0.000000E+00  4.123278E+00  9.038062E-07  4.578170E-10  4.123278E+00                                                                                                                                                                                                                                                                                                                                                                                                                                                                                              
  8.750000E+02  1.250000E+02 -4.725000E+03  4.365249E-06  1.327439E-12 -1.959472E-15  4.365249E-06  2.434979E-08  7.419921E-15 -1.095277E-17  2.434979E-08  0.000000E+00  0.000000E+00  0.000000E+00  0.000000E+00  0.000000E+00  0.000000E+00  0.000000E+00  0.000000E+00  4.123281E+00  1.186468E-06 -1.808208E-09  4.123281E+00                                                                                                                                                                                                                                                                                                                                                                                                                                                                                              
  1.050000E+03  1.250000E+02 -4.725000E+03  4.365252E-06 -1.449080E-15  2.130333E-15  4.365252E-06  2.434982E-08 -8.099855E-18  1.190782E-17  2.434982E-08  0.000000E+00  0.000000E+00  0.000000E+00  0.000000E+00  0.000000E+00  0.000000E+00  0.000000E+00  0.000000E+00  4.123277E+00 -1.382057E-09  1.896811E-09  4.123277E+00                                                                                                                                                                                                                                                                                                                                                                                                                                                                                              
  1.225000E+03  1.250000E+02 -4.725000E+03  4.365249E-06 -1.330118E-12 -1.031418E-14  4.365249E-06  2.434979E-08 -7.434899E-15 -5.765268E-17  2.434979E-08  0.000000E+00  0.000000E+00  0.000000E+00  0.000000E+00  0.000000E+00  0.000000E+00  0.000000E+00  0.000000E+00  4.123281E+00 -1.188948E-06 -9.524897E-09  4.123281E+00                                                                                                                                                                                                                                                                                                                                                                                                                                                                                              
  1.475000E+03  1.250000E+02 -4.725000E+03  4.365244E-06 -1.006295E-12 -1.523491E-15  4.365244E-06  2.434977E-08 -5.624837E-15 -8.515785E-18  2.434977E-08  0.000000E+00  0.000000E+00  0.000000E+00  0.000000E+00  0.000000E+00  0.000000E+00  0.000000E+00  0.000000E+00  4.123278E+00 -8.995607E-07 -1.484489E-09  4.123278E+00                                                                                                                                                                                                                                                                                                                                                                                                                                                                                              
  1.725000E+03  1.250000E+02 -4.725000E+03  4.365242E-06 -6.037947E-13 -9.542554E-15  4.365242E-06  2.434975E-08 -3.375002E-15 -5.333956E-17  2.434975E-08  0.000000E+00  0.000000E+00  0.000000E+00  0.000000E+00  0.000000E+00  0.000000E+00  0.000000E+00  0.000000E+00  4.123276E+00 -5.398312E-07 -8.842990E-09  4.123276E+00                                                                                                                                                                                                                                                                                                                                                                                                                                                                                              