Title="TOUGHREACT V3.30-OMP flowvector.tec: Liq & Gas Fluxes (kg/s/m^2), Pore Velocities (m/s), & Heat Fluxes (J/s/m2)"                                                                                                                                                                                                                                                                                                                                                                                                                                                                                                                                                                                                                                                                                                         
Variables= "X(m)"     "Y(m)"      "Z(m)"     "FluxLiq"   "FluxLiq_X"   "FluxLiq_Y"   "FluxLiq_Z"   "PorVelLiq"  "PorVelLiqX"  "PorVelLiqY"  "PorVelLiqZ"     "FluxGas"   "FluxGas_X"   "FluxGas_Y"   "FluxGas_Z"   "PorVelGas"  "PorVelGasX"  "PorVelGasY"  "PorVelGasZ"    "HeatFlux"  "HeatFlux_X"  "HeatFlux_Y"  "HeatFlux_Z"                                                                                                                                                                                                                                                                                                                                                                                                                                                                                                
Zone T= "1.00000000E+09 sec" I=     9 J=    10 K=    23 F=Point
  1.250000E+02  1.250000E+02 -5.425000E+03  1.813989E-08 -3.255738E-10 -6.254043E-10  1.812618E-08  1.047035E-10 -1.886721E-12 -3.624255E-12  1.046238E-10  0.000000E+00  0.000000E+00  0.000000E+00  0.000000E+00  0.000000E+00  0.000000E+00  0.000000E+00  0.000000E+00  1.122357E-01 -3.303403E-04 -6.346068E-04  1.122334E-01                                                                                                                                                                                                                                                                                                                                                                                                                                                                                              
  3.750000E+02  1.250000E+02 -5.425000E+03  1.803754E-08 -7.649883E-10 -5.946430E-10  1.801150E-08  1.041133E-10 -4.433153E-12 -3.445989E-12  1.039617E-10  0.000000E+00  0.000000E+00  0.000000E+00  0.000000E+00  0.000000E+00  0.000000E+00  0.000000E+00  0.000000E+00  1.121231E-01 -7.761977E-04 -6.034060E-04  1.121188E-01                                                                                                                                                                                                                                                                                                                                                                                                                                                                                              
  6.250000E+02  1.250000E+02 -5.425000E+03  1.791067E-08 -7.627393E-10 -5.430683E-10  1.788618E-08  1.033808E-10 -4.420116E-12 -3.147107E-12  1.032383E-10  0.000000E+00  0.000000E+00  0.000000E+00  0.000000E+00  0.000000E+00  0.000000E+00  0.000000E+00  0.000000E+00  1.119973E-01 -7.739320E-04 -5.510799E-04  1.119933E-01                                                                                                                                                                                                                                                                                                                                                                                                                                                                                              
  8.750000E+02  1.250000E+02 -5.425000E+03  1.781466E-08 -3.806203E-10 -4.990300E-10  1.780360E-08  1.028258E-10 -2.205714E-12 -2.891900E-12  1.027615E-10  0.000000E+00  0.000000E+00  0.000000E+00  0.000000E+00  0.000000E+00  0.000000E+00  0.000000E+00  0.000000E+00  1.119120E-01 -3.862120E-04 -5.063869E-04  1.119102E-01                                                                                                                                                                                                                                                                                                                                                                                                                                                                                              
  1.050000E+03  1.250000E+02 -5.425000E+03  1.779891E-08 -2.000350E-18 -4.932816E-10  1.779208E-08  1.027348E-10 -1.159299E-20 -2.858588E-12  1.026950E-10  0.000000E+00  0.000000E+00  0.000000E+00  0.000000E+00  0.000000E+00  0.000000E+00  0.000000E+00  0.000000E+00  1.118998E-01  5.717268E-11 -5.005525E-04  1.118987E-01                                                                                                                                                                                                                                                                                                                                                                                                                                                                                              
  1.225000E+03  1.250000E+02 -5.425000E+03  1.781466E-08  3.806204E-10 -4.990299E-10  1.780360E-08  1.028258E-10  2.205715E-12 -2.891900E-12  1.027615E-10  0.000000E+00  0.000000E+00  0.000000E+00  0.000000E+00  0.000000E+00  0.000000E+00  0.000000E+00  0.000000E+00  1.119120E-01  3.862114E-04 -5.063872E-04  1.119102E-01                                                                                                                                                                                                                                                                                                                                                                                                                                                                                              
  1.475000E+03  1.250000E+02 -5.425000E+03  1.791067E-08  7.627394E-10 -5.430683E-10  1.788618E-08  1.033808E-10  4.420117E-12 -3.147107E-12  1.032383E-10  0.000000E+00  0.000000E+00  0.000000E+00  0.000000E+00  0.000000E+00  0.000000E+00  0.000000E+00  0.000000E+00  1.119973E-01  7.739313E-04 -5.510792E-04  1.119933E-01                                                                                                                                                                                                                                                                                                                                                                                                                                                                                              
  1.725000E+03  1.250000E+02 -5.425000E+03  1.803754E-08  7.649882E-10 -5.946429E-10  1.801150E-08  1.041133E-10  4.433153E-12 -3.445988E-12  1.039617E-10  0.000000E+00  0.000000E+00  0.000000E+00  0.000000E+00  0.000000E+00  0.000000E+00  0.000000E+00  0.000000E+00  1.121231E-01  7.761980E-04 -6.034065E-04  1.121188E-01                                                                                                                                                                                                                                                                                                                                                                                                                                                                                              
  1.975000E+03  1.250000E+02 -5.425000E+03  1.813989E-08  3.255736E-10 -6.254041E-10  1.812618E-08  1.047035E-10  1.886720E-12 -3.624254E-12  1.046238E-10  0.000000E+00  0.000000E+00  0.000000E+00  0.000000E+00  0.000000E+00  0.000000E+00  0.000000E+00  0.000000E+00  1.122357E-01  3.303406E-04 -6.346076E-04  1.122334E-01                                                                                                                                                                                                                                                                                                                                                                                                                                                                                              
  1.250000E+02  1.250000E+02 -5.225000E+03  7.507160E-08 -4.086167E-10 -7.278334E-10  7.506696E-08  4.300139E-10 -2.346959E-12 -4.180430E-12  4.299872E-10  0.000000E+00  0.000000E+00  0.000000E+00  0.000000E+00  0.000000E+00  0.000000E+00  0.000000E+00  0.000000E+00  2.676665E-01 -3.995871E-04 -7.139480E-04  2.676652E-01                                                                                                                                                                                                                                                                                                                                                                                                                                                                                              
  3.750000E+02  1.250000E+02 -5.225000E+03  7.457569E-08 -9.371610E-10 -6.845613E-10  7.456666E-08  4.271712E-10 -5.382736E-12 -3.931885E-12  4.271192E-10  0.000000E+00  0.000000E+00  0.000000E+00  0.000000E+00  0.000000E+00  0.000000E+00  0.000000E+00  0.000000E+00  2.672816E-01 -9.169408E-04 -6.721726E-04  2.672792E-01                                                                                                                                                                                                                                                                                                                                                                                                                                                                                              
  6.250000E+02  1.250000E+02 -5.225000E+03  7.406854E-08 -9.099851E-10 -6.097700E-10  7.406044E-08  4.242634E-10 -5.226640E-12 -3.502304E-12  4.242167E-10  0.000000E+00  0.000000E+00  0.000000E+00  0.000000E+00  0.000000E+00  0.000000E+00  0.000000E+00  0.000000E+00  2.668821E-01 -8.910866E-04 -5.991759E-04  2.668800E-01                                                                                                                                                                                                                                                                                                                                                                                                                                                                                              
  8.750000E+02  1.250000E+02 -5.225000E+03  7.373626E-08 -4.504538E-10 -5.454403E-10  7.373287E-08  4.223583E-10 -2.587249E-12 -3.132814E-12  4.223388E-10  0.000000E+00  0.000000E+00  0.000000E+00  0.000000E+00  0.000000E+00  0.000000E+00  0.000000E+00  0.000000E+00  2.666077E-01 -4.413223E-04 -5.357989E-04  2.666068E-01                                                                                                                                                                                                                                                                                                                                                                                                                                                                                              
  1.050000E+03  1.250000E+02 -5.225000E+03  7.367765E-08 -1.510103E-17 -5.362728E-10  7.367570E-08  4.220223E-10 -8.673280E-20 -3.080159E-12  4.220111E-10  0.000000E+00  0.000000E+00  0.000000E+00  0.000000E+00  0.000000E+00  0.000000E+00  0.000000E+00  0.000000E+00  2.665659E-01 -1.445548E-10 -5.267349E-04  2.665653E-01                                                                                                                                                                                                                                                                                                                                                                                                                                                                                              
  1.225000E+03  1.250000E+02 -5.225000E+03  7.373626E-08  4.504538E-10 -5.454403E-10  7.373287E-08  4.223583E-10  2.587249E-12 -3.132814E-12  4.223388E-10  0.000000E+00  0.000000E+00  0.000000E+00  0.000000E+00  0.000000E+00  0.000000E+00  0.000000E+00  0.000000E+00  2.666077E-01  4.413222E-04 -5.357987E-04  2.666068E-01                                                                                                                                                                                                                                                                                                                                                                                                                                                                                              
  1.475000E+03  1.250000E+02 -5.225000E+03  7.406854E-08  9.099851E-10 -6.097699E-10  7.406044E-08  4.242634E-10  5.226640E-12 -3.502303E-12  4.242167E-10  0.000000E+00  0.000000E+00  0.000000E+00  0.000000E+00  0.000000E+00  0.000000E+00  0.000000E+00  0.000000E+00  2.668821E-01  8.910867E-04 -5.991758E-04  2.668800E-01                                                                                                                                                                                                                                                                                                                                                                                                                                                                                              
  1.725000E+03  1.250000E+02 -5.225000E+03  7.457569E-08  9.371610E-10 -6.845613E-10  7.456666E-08  4.271712E-10  5.382736E-12 -3.931885E-12  4.271192E-10  0.000000E+00  0.000000E+00  0.000000E+00  0.000000E+00  0.000000E+00  0.000000E+00  0.000000E+00  0.000000E+00  2.672816E-01  9.169407E-04 -6.721727E-04  2.672792E-01                                                                                                                                                                                                                                                                                                                                                                                                                                                                                              
  1.975000E+03  1.250000E+02 -5.225000E+03  7.507160E-08  4.086167E-10 -7.278334E-10  7.506696E-08  4.300139E-10  2.346959E-12 -4.180430E-12  4.299872E-10  0.000000E+00  0.000000E+00  0.000000E+00  0.000000E+00  0.000000E+00  0.000000E+00  0.000000E+00  0.000000E+00  2.676665E-01  3.995870E-04 -7.139479E-04  2.676652E-01                                                                                                                                                                                                                                                                                                                                                                                                                                                                                              
  1.250000E+02  1.250000E+02 -4.975000E+03  1.421848E-07 -7.522037E-10 -1.175054E-09  1.421780E-07  8.067749E-10 -4.271813E-12 -6.673227E-12  8.067360E-10  0.000000E+00  0.000000E+00  0.000000E+00  0.000000E+00  0.000000E+00  0.000000E+00  0.000000E+00  0.000000E+00  3.458681E-01 -5.965196E-04 -1.066047E-03  3.458660E-01                                                                                                                                                                                                                                                                                                                                                                                                                                                                                              
  3.750000E+02  1.250000E+02 -4.975000E+03  1.404540E-07 -1.617465E-09 -1.073109E-09  1.404406E-07  7.968255E-10 -9.185613E-12 -6.094200E-12  7.967493E-10  0.000000E+00  0.000000E+00  0.000000E+00  0.000000E+00  0.000000E+00  0.000000E+00  0.000000E+00  0.000000E+00  3.495745E-01 -1.306056E-03 -1.021777E-03  3.495705E-01                                                                                                                                                                                                                                                                                                                                                                                                                                                                                              
  6.250000E+02  1.250000E+02 -4.975000E+03  1.389458E-07 -1.464415E-09 -8.903456E-10  1.389352E-07  7.881441E-10 -8.316351E-12 -5.056225E-12  7.880840E-10  0.000000E+00  0.000000E+00  0.000000E+00  0.000000E+00  0.000000E+00  0.000000E+00  0.000000E+00  0.000000E+00  3.532307E-01 -1.220106E-03 -8.829129E-04  3.532275E-01                                                                                                                                                                                                                                                                                                                                                                                                                                                                                              
  8.750000E+02  1.250000E+02 -4.975000E+03  1.379493E-07 -7.258001E-10 -7.326506E-10  1.379454E-07  7.824051E-10 -4.121758E-12 -4.160651E-12  7.823831E-10  0.000000E+00  0.000000E+00  0.000000E+00  0.000000E+00  0.000000E+00  0.000000E+00  0.000000E+00  0.000000E+00  3.558977E-01 -6.078775E-04 -7.239505E-04  3.558964E-01                                                                                                                                                                                                                                                                                                                                                                                                                                                                                              
  1.050000E+03  1.250000E+02 -4.975000E+03  1.375641E-07  1.992571E-17 -7.009273E-10  1.375624E-07  7.801843E-10  1.131548E-19 -3.980491E-12  7.801741E-10  0.000000E+00  0.000000E+00  0.000000E+00  0.000000E+00  0.000000E+00  0.000000E+00  0.000000E+00  0.000000E+00  3.572121E-01  6.211534E-11 -6.963142E-04  3.572114E-01                                                                                                                                                                                                                                                                                                                                                                                                                                                                                              
  1.225000E+03  1.250000E+02 -4.975000E+03  1.379493E-07  7.258000E-10 -7.326505E-10  1.379454E-07  7.824051E-10  4.121758E-12 -4.160651E-12  7.823831E-10  0.000000E+00  0.000000E+00  0.000000E+00  0.000000E+00  0.000000E+00  0.000000E+00  0.000000E+00  0.000000E+00  3.558977E-01  6.078777E-04 -7.239506E-04  3.558964E-01                                                                                                                                                                                                                                                                                                                                                                                                                                                                                              
  1.475000E+03  1.250000E+02 -4.975000E+03  1.389458E-07  1.464415E-09 -8.903454E-10  1.389352E-07  7.881441E-10  8.316350E-12 -5.056225E-12  7.880840E-10  0.000000E+00  0.000000E+00  0.000000E+00  0.000000E+00  0.000000E+00  0.000000E+00  0.000000E+00  0.000000E+00  3.532307E-01  1.220106E-03 -8.829131E-04  3.532275E-01                                                                                                                                                                                                                                                                                                                                                                                                                                                                                              
  1.725000E+03  1.250000E+02 -4.975000E+03  1.404540E-07  1.617464E-09 -1.073109E-09  1.404406E-07  7.968255E-10  9.185613E-12 -6.094199E-12  7.967493E-10  0.000000E+00  0.000000E+00  0.000000E+00  0.000000E+00  0.000000E+00  0.000000E+00  0.000000E+00  0.000000E+00  3.495745E-01  1.306055E-03 -1.021777E-03  3.495705E-01                                                                                                                                                                                                                                                                                                                                                                                                                                                                                              
  1.975000E+03  1.250000E+02 -4.975000E+03  1.421848E-07  7.522036E-10 -1.175054E-09  1.421780E-07  8.067749E-10  4.271812E-12 -6.673226E-12  8.067360E-10  0.000000E+00  0.000000E+00  0.000000E+00  0.000000E+00  0.000000E+00  0.000000E+00  0.000000E+00  0.000000E+00  3.458681E-01  5.965193E-04 -1.066047E-03  3.458660E-01                                                                                                                                                                                                                                                                                                                                                                                                                                                                                              
  1.250000E+02  1.250000E+02 -4.725000E+03  1.306693E-07 -1.203641E-09 -2.102073E-09  1.306468E-07  7.290366E-10 -6.752383E-12 -1.179356E-11  7.289099E-10  0.000000E+00  0.000000E+00  0.000000E+00  0.000000E+00  0.000000E+00  0.000000E+00  0.000000E+00  0.000000E+00  1.073108E+00  4.288046E-03  1.833992E-03  1.073098E+00                                                                                                                                                                                                                                                                                                                                                                                                                                                                                              
  3.750000E+02  1.250000E+02 -4.725000E+03  1.253510E-07 -2.338057E-09 -1.930095E-09  1.253143E-07  6.992748E-10 -1.311277E-11 -1.082334E-11  6.990681E-10  0.000000E+00  0.000000E+00  0.000000E+00  0.000000E+00  0.000000E+00  0.000000E+00  0.000000E+00  0.000000E+00  1.108900E+00  8.374350E-03  2.376812E-04  1.108868E+00                                                                                                                                                                                                                                                                                                                                                                                                                                                                                              
  6.250000E+02  1.250000E+02 -4.725000E+03  1.214398E-07 -1.878169E-09 -1.524240E-09  1.214157E-07  6.773459E-10 -1.052843E-11 -8.543345E-12  6.772102E-10  0.000000E+00  0.000000E+00  0.000000E+00  0.000000E+00  0.000000E+00  0.000000E+00  0.000000E+00  0.000000E+00  1.137223E+00  7.039345E-03 -8.778315E-04  1.137200E+00                                                                                                                                                                                                                                                                                                                                                                                                                                                                                              
  8.750000E+02  1.250000E+02 -4.725000E+03  1.184259E-07 -9.680207E-10 -1.155897E-09  1.184163E-07  6.605070E-10 -5.424492E-12 -6.476500E-12  6.604529E-10  0.000000E+00  0.000000E+00  0.000000E+00  0.000000E+00  0.000000E+00  0.000000E+00  0.000000E+00  0.000000E+00  1.160867E+00  5.150249E-03 -1.317436E-03  1.160855E+00                                                                                                                                                                                                                                                                                                                                                                                                                                                                                              
  1.050000E+03  1.250000E+02 -4.725000E+03  1.177914E-07  1.145762E-16 -1.050604E-09  1.177867E-07  6.568928E-10  6.419749E-19 -5.885798E-12  6.568664E-10  0.000000E+00  0.000000E+00  0.000000E+00  0.000000E+00  0.000000E+00  0.000000E+00  0.000000E+00  0.000000E+00  1.165580E+00 -1.293960E-09 -2.275800E-03  1.165578E+00                                                                                                                                                                                                                                                                                                                                                                                                                                                                                              
  1.225000E+03  1.250000E+02 -4.725000E+03  1.184259E-07  9.680208E-10 -1.155896E-09  1.184163E-07  6.605070E-10  5.424493E-12 -6.476500E-12  6.604529E-10  0.000000E+00  0.000000E+00  0.000000E+00  0.000000E+00  0.000000E+00  0.000000E+00  0.000000E+00  0.000000E+00  1.160867E+00 -5.150250E-03 -1.317437E-03  1.160855E+00                                                                                                                                                                                                                                                                                                                                                                                                                                                                                              
  1.475000E+03  1.250000E+02 -4.725000E+03  1.214398E-07  1.878169E-09 -1.524240E-09  1.214157E-07  6.773459E-10  1.052843E-11 -8.543344E-12  6.772102E-10  0.000000E+00  0.000000E+00  0.000000E+00  0.000000E+00  0.000000E+00  0.000000E+00  0.000000E+00  0.000000E+00  1.137223E+00 -7.039343E-03 -8.778327E-04  1.137200E+00                                                                                                                                                                                                                                                                                                                                                                                                                                                                                              
  1.725000E+03  1.250000E+02 -4.725000E+03  1.253510E-07  2.338057E-09 -1.930095E-09  1.253143E-07  6.992748E-10  1.311277E-11 -1.082334E-11  6.990681E-10  0.000000E+00  0.000000E+00  0.000000E+00  0.000000E+00  0.000000E+00  0.000000E+00  0.000000E+00  0.000000E+00  1.108900E+00 -8.374349E-03  2.376787E-04  1.108868E+00                                                                                                                                                                                                                                                                                                                                                                                                                                                                                              