Title="TOUGHREACT V3.30-OMP flowvector.tec: Liq & Gas Fluxes (kg/s/m^2), Pore Velocities (m/s), & Heat Fluxes (J/s/m2)"                                                                                                                                                                                                                                                                                                                                                                                                                                                                                                                                                                                                                                                                                                         
Variables= "X(m)"     "Y(m)"      "Z(m)"     "FluxLiq"   "FluxLiq_X"   "FluxLiq_Y"   "FluxLiq_Z"   "PorVelLiq"  "PorVelLiqX"  "PorVelLiqY"  "PorVelLiqZ"     "FluxGas"   "FluxGas_X"   "FluxGas_Y"   "FluxGas_Z"   "PorVelGas"  "PorVelGasX"  "PorVelGasY"  "PorVelGasZ"    "HeatFlux"  "HeatFlux_X"  "HeatFlux_Y"  "HeatFlux_Z"                                                                                                                                                                                                                                                                                                                                                                                                                                                                                                
Zone T= "1.00000000E+07 sec" I=     9 J=    10 K=    23 F=Point
  1.250000E+02  1.250000E+02 -5.425000E+03  3.738688E-07 -1.019338E-14  4.796684E-15  3.738688E-07  2.140617E-09 -5.860793E-17  2.757906E-17  2.140617E-09  0.000000E+00  0.000000E+00  0.000000E+00  0.000000E+00  0.000000E+00  0.000000E+00  0.000000E+00  0.000000E+00  4.803872E-01 -1.042245E-08  5.380318E-09  4.803872E-01                                                                                                                                                                                                                                                                                                                                                                                                                                                                                              
  3.750000E+02  1.250000E+02 -5.425000E+03  3.738688E-07 -1.999496E-14 -2.006737E-14  3.738688E-07  2.140617E-09 -1.149632E-16 -1.153795E-16  2.140617E-09  0.000000E+00  0.000000E+00  0.000000E+00  0.000000E+00  0.000000E+00  0.000000E+00  0.000000E+00  0.000000E+00  4.803872E-01 -2.078264E-08 -2.108462E-08  4.803872E-01                                                                                                                                                                                                                                                                                                                                                                                                                                                                                              
  6.250000E+02  1.250000E+02 -5.425000E+03  3.738688E-07 -1.060687E-14 -3.681937E-15  3.738688E-07  2.140617E-09 -6.098536E-17 -2.116970E-17  2.140617E-09  0.000000E+00  0.000000E+00  0.000000E+00  0.000000E+00  0.000000E+00  0.000000E+00  0.000000E+00  0.000000E+00  4.803872E-01 -1.114397E-08 -3.780696E-09  4.803872E-01                                                                                                                                                                                                                                                                                                                                                                                                                                                                                              
  8.750000E+02  1.250000E+02 -5.425000E+03  3.738689E-07 -1.168855E-14  2.102857E-14  3.738689E-07  2.140617E-09 -6.720459E-17  1.209061E-16  2.140617E-09  0.000000E+00  0.000000E+00  0.000000E+00  0.000000E+00  0.000000E+00  0.000000E+00  0.000000E+00  0.000000E+00  4.803872E-01 -1.276662E-08  2.206477E-08  4.803872E-01                                                                                                                                                                                                                                                                                                                                                                                                                                                                                              
  1.050000E+03  1.250000E+02 -5.425000E+03  3.738689E-07 -1.923626E-15  3.268020E-15  3.738689E-07  2.140617E-09 -1.106010E-17  1.878984E-17  2.140617E-09  0.000000E+00  0.000000E+00  0.000000E+00  0.000000E+00  0.000000E+00  0.000000E+00  0.000000E+00  0.000000E+00  4.803872E-01 -2.111689E-09  3.302692E-09  4.803872E-01                                                                                                                                                                                                                                                                                                                                                                                                                                                                                              
  1.225000E+03  1.250000E+02 -5.425000E+03  3.738689E-07 -1.791400E-15  4.823168E-15  3.738689E-07  2.140617E-09 -1.029985E-17  2.773133E-17  2.140617E-09  0.000000E+00  0.000000E+00  0.000000E+00  0.000000E+00  0.000000E+00  0.000000E+00  0.000000E+00  0.000000E+00  4.803872E-01 -1.377177E-09  5.017219E-09  4.803872E-01                                                                                                                                                                                                                                                                                                                                                                                                                                                                                              
  1.475000E+03  1.250000E+02 -5.425000E+03  3.738689E-07 -1.058600E-14  6.598108E-15  3.738689E-07  2.140617E-09 -6.086538E-17  3.793654E-17  2.140617E-09  0.000000E+00  0.000000E+00  0.000000E+00  0.000000E+00  0.000000E+00  0.000000E+00  0.000000E+00  0.000000E+00  4.803872E-01 -1.087233E-08  6.999669E-09  4.803872E-01                                                                                                                                                                                                                                                                                                                                                                                                                                                                                              
  1.725000E+03  1.250000E+02 -5.425000E+03  3.738688E-07  1.911573E-14 -3.031938E-14  3.738688E-07  2.140617E-09  1.099080E-16 -1.743246E-16  2.140617E-09  0.000000E+00  0.000000E+00  0.000000E+00  0.000000E+00  0.000000E+00  0.000000E+00  0.000000E+00  0.000000E+00  4.803872E-01  2.007664E-08 -3.213919E-08  4.803872E-01                                                                                                                                                                                                                                                                                                                                                                                                                                                                                              
  1.975000E+03  1.250000E+02 -5.425000E+03  3.738688E-07  1.895070E-14 -1.788703E-14  3.738688E-07  2.140617E-09  1.089591E-16 -1.028435E-16  2.140617E-09  0.000000E+00  0.000000E+00  0.000000E+00  0.000000E+00  0.000000E+00  0.000000E+00  0.000000E+00  0.000000E+00  4.803872E-01  1.970064E-08 -1.886171E-08  4.803872E-01                                                                                                                                                                                                                                                                                                                                                                                                                                                                                              
  1.250000E+02  1.250000E+02 -5.225000E+03  8.629061E-07  2.851098E-15  6.099845E-16  8.629061E-07  4.914481E-09  1.625350E-17  3.477390E-18  4.914481E-09  0.000000E+00  0.000000E+00  0.000000E+00  0.000000E+00  0.000000E+00  0.000000E+00  0.000000E+00  0.000000E+00  1.060759E+00  2.829508E-09  6.045527E-10  1.060759E+00                                                                                                                                                                                                                                                                                                                                                                                                                                                                                              
  3.750000E+02  1.250000E+02 -5.225000E+03  8.629061E-07  7.840153E-15 -1.191818E-15  8.629061E-07  4.914481E-09  4.469503E-17 -6.794298E-18  4.914481E-09  0.000000E+00  0.000000E+00  0.000000E+00  0.000000E+00  0.000000E+00  0.000000E+00  0.000000E+00  0.000000E+00  1.060759E+00  7.746242E-09 -1.173021E-09  1.060759E+00                                                                                                                                                                                                                                                                                                                                                                                                                                                                                              
  6.250000E+02  1.250000E+02 -5.225000E+03  8.629062E-07  1.236526E-14 -8.240486E-16  8.629062E-07  4.914482E-09  7.049169E-17 -4.697724E-18  4.914482E-09  0.000000E+00  0.000000E+00  0.000000E+00  0.000000E+00  0.000000E+00  0.000000E+00  0.000000E+00  0.000000E+00  1.060760E+00  1.214749E-08 -8.402690E-10  1.060760E+00                                                                                                                                                                                                                                                                                                                                                                                                                                                                                              
  8.750000E+02  1.250000E+02 -5.225000E+03  8.629063E-07  8.572693E-15  1.309525E-15  8.629063E-07  4.914482E-09  4.887108E-17  7.465321E-18  4.914482E-09  0.000000E+00  0.000000E+00  0.000000E+00  0.000000E+00  0.000000E+00  0.000000E+00  0.000000E+00  0.000000E+00  1.060760E+00  8.402765E-09  1.270840E-09  1.060760E+00                                                                                                                                                                                                                                                                                                                                                                                                                                                                                              
  1.050000E+03  1.250000E+02 -5.225000E+03  8.629063E-07 -2.187259E-15 -7.219370E-16  8.629063E-07  4.914482E-09 -1.246909E-17 -4.115608E-18  4.914482E-09  0.000000E+00  0.000000E+00  0.000000E+00  0.000000E+00  0.000000E+00  0.000000E+00  0.000000E+00  0.000000E+00  1.060760E+00 -2.205956E-09 -7.570632E-10  1.060760E+00                                                                                                                                                                                                                                                                                                                                                                                                                                                                                              
  1.225000E+03  1.250000E+02 -5.225000E+03  8.629063E-07 -1.122697E-14  8.859768E-16  8.629063E-07  4.914482E-09 -6.400254E-17  5.050764E-18  4.914482E-09  0.000000E+00  0.000000E+00  0.000000E+00  0.000000E+00  0.000000E+00  0.000000E+00  0.000000E+00  0.000000E+00  1.060760E+00 -1.106799E-08  8.987200E-10  1.060760E+00                                                                                                                                                                                                                                                                                                                                                                                                                                                                                              
  1.475000E+03  1.250000E+02 -5.225000E+03  8.629062E-07 -1.240050E-14 -2.338152E-16  8.629062E-07  4.914482E-09 -7.069257E-17 -1.332930E-18  4.914482E-09  0.000000E+00  0.000000E+00  0.000000E+00  0.000000E+00  0.000000E+00  0.000000E+00  0.000000E+00  0.000000E+00  1.060760E+00 -1.214334E-08 -2.233253E-10  1.060760E+00                                                                                                                                                                                                                                                                                                                                                                                                                                                                                              
  1.725000E+03  1.250000E+02 -5.225000E+03  8.629061E-07 -6.205450E-15 -4.443358E-15  8.629061E-07  4.914481E-09 -3.537594E-17 -2.533063E-17  4.914481E-09  0.000000E+00  0.000000E+00  0.000000E+00  0.000000E+00  0.000000E+00  0.000000E+00  0.000000E+00  0.000000E+00  1.060759E+00 -6.090576E-09 -4.424765E-09  1.060759E+00                                                                                                                                                                                                                                                                                                                                                                                                                                                                                              
  1.975000E+03  1.250000E+02 -5.225000E+03  8.629061E-07 -1.648176E-15 -3.147691E-15  8.629061E-07  4.914481E-09 -9.395898E-18 -1.794431E-17  4.914481E-09  0.000000E+00  0.000000E+00  0.000000E+00  0.000000E+00  0.000000E+00  0.000000E+00  0.000000E+00  0.000000E+00  1.060759E+00 -1.637266E-09 -3.150772E-09  1.060759E+00                                                                                                                                                                                                                                                                                                                                                                                                                                                                                              
  1.250000E+02  1.250000E+02 -4.975000E+03  1.283970E-06  3.131599E-14 -2.428401E-15  1.283970E-06  7.238874E-09  1.767417E-16 -1.370545E-17  7.238874E-09  0.000000E+00  0.000000E+00  0.000000E+00  0.000000E+00  0.000000E+00  0.000000E+00  0.000000E+00  0.000000E+00  1.426089E+00  2.937337E-08 -2.371876E-09  1.426089E+00                                                                                                                                                                                                                                                                                                                                                                                                                                                                                              
  3.750000E+02  1.250000E+02 -4.975000E+03  1.283970E-06  9.701043E-14 -1.283907E-15  1.283970E-06  7.238875E-09  5.475091E-16 -7.246134E-18  7.238875E-09  0.000000E+00  0.000000E+00  0.000000E+00  0.000000E+00  0.000000E+00  0.000000E+00  0.000000E+00  0.000000E+00  1.426089E+00  9.094848E-08 -1.250568E-09  1.426089E+00                                                                                                                                                                                                                                                                                                                                                                                                                                                                                              
  6.250000E+02  1.250000E+02 -4.975000E+03  1.283971E-06  1.451711E-13 -1.586920E-16  1.283971E-06  7.238878E-09  8.193190E-16 -8.956285E-19  7.238878E-09  0.000000E+00  0.000000E+00  0.000000E+00  0.000000E+00  0.000000E+00  0.000000E+00  0.000000E+00  0.000000E+00  1.426090E+00  1.360427E-07 -8.346448E-11  1.426090E+00                                                                                                                                                                                                                                                                                                                                                                                                                                                                                              
  8.750000E+02  1.250000E+02 -4.975000E+03  1.283971E-06  1.220965E-13  4.332033E-15  1.283971E-06  7.238882E-09  6.890900E-16  2.444920E-17  7.238882E-09  0.000000E+00  0.000000E+00  0.000000E+00  0.000000E+00  0.000000E+00  0.000000E+00  0.000000E+00  0.000000E+00  1.426090E+00  1.145122E-07  4.251637E-09  1.426090E+00                                                                                                                                                                                                                                                                                                                                                                                                                                                                                              
  1.050000E+03  1.250000E+02 -4.975000E+03  1.283972E-06  3.017934E-15  4.594729E-15  1.283972E-06  7.238884E-09  1.703266E-17  2.593181E-17  7.238884E-09  0.000000E+00  0.000000E+00  0.000000E+00  0.000000E+00  0.000000E+00  0.000000E+00  0.000000E+00  0.000000E+00  1.426091E+00  3.011559E-09  4.490735E-09  1.426091E+00                                                                                                                                                                                                                                                                                                                                                                                                                                                                                              
  1.225000E+03  1.250000E+02 -4.975000E+03  1.283971E-06 -1.202704E-13 -8.078115E-16  1.283971E-06  7.238882E-09 -6.787841E-16 -4.559140E-18  7.238882E-09  0.000000E+00  0.000000E+00  0.000000E+00  0.000000E+00  0.000000E+00  0.000000E+00  0.000000E+00  0.000000E+00  1.426090E+00 -1.126339E-07 -8.033320E-10  1.426090E+00                                                                                                                                                                                                                                                                                                                                                                                                                                                                                              
  1.475000E+03  1.250000E+02 -4.975000E+03  1.283971E-06 -1.434906E-13 -3.638062E-15  1.283971E-06  7.238878E-09 -8.098344E-16 -2.053256E-17  7.238878E-09  0.000000E+00  0.000000E+00  0.000000E+00  0.000000E+00  0.000000E+00  0.000000E+00  0.000000E+00  0.000000E+00  1.426090E+00 -1.345307E-07 -3.476375E-09  1.426090E+00                                                                                                                                                                                                                                                                                                                                                                                                                                                                                              
  1.725000E+03  1.250000E+02 -4.975000E+03  1.283970E-06 -9.732491E-14 -9.006415E-15  1.283970E-06  7.238875E-09 -5.492839E-16 -5.083055E-17  7.238875E-09  0.000000E+00  0.000000E+00  0.000000E+00  0.000000E+00  0.000000E+00  0.000000E+00  0.000000E+00  0.000000E+00  1.426089E+00 -9.140284E-08 -8.599118E-09  1.426089E+00                                                                                                                                                                                                                                                                                                                                                                                                                                                                                              
  1.975000E+03  1.250000E+02 -4.975000E+03  1.283970E-06 -3.450288E-14  1.012151E-15  1.283970E-06  7.238874E-09 -1.947279E-16  5.712397E-18  7.238874E-09  0.000000E+00  0.000000E+00  0.000000E+00  0.000000E+00  0.000000E+00  0.000000E+00  0.000000E+00  0.000000E+00  1.426089E+00 -3.247294E-08  1.023586E-09  1.426089E+00                                                                                                                                                                                                                                                                                                                                                                                                                                                                                              
  1.250000E+02  1.250000E+02 -4.725000E+03  3.716644E-06  2.811186E-13  5.667696E-15  3.716644E-06  2.075888E-08  1.572504E-15  3.170361E-17  2.075888E-08  0.000000E+00  0.000000E+00  0.000000E+00  0.000000E+00  0.000000E+00  0.000000E+00  0.000000E+00  0.000000E+00  3.556801E+00  2.512807E-07  4.714171E-09  3.556801E+00                                                                                                                                                                                                                                                                                                                                                                                                                                                                                              
  3.750000E+02  1.250000E+02 -4.725000E+03  3.716645E-06  8.106152E-13  9.254233E-16  3.716645E-06  2.075888E-08  4.534370E-15  5.176577E-18  2.075888E-08  0.000000E+00  0.000000E+00  0.000000E+00  0.000000E+00  0.000000E+00  0.000000E+00  0.000000E+00  0.000000E+00  3.556802E+00  7.247735E-07  1.024447E-09  3.556802E+00                                                                                                                                                                                                                                                                                                                                                                                                                                                                                              
  6.250000E+02  1.250000E+02 -4.725000E+03  3.716646E-06  1.236988E-12 -6.116204E-15  3.716646E-06  2.075889E-08  6.919390E-15 -3.421245E-17  2.075889E-08  0.000000E+00  0.000000E+00  0.000000E+00  0.000000E+00  0.000000E+00  0.000000E+00  0.000000E+00  0.000000E+00  3.556802E+00  1.103149E-06 -5.420154E-09  3.556802E+00                                                                                                                                                                                                                                                                                                                                                                                                                                                                                              
  8.750000E+02  1.250000E+02 -4.725000E+03  3.716649E-06  1.102600E-12 -2.942555E-16  3.716649E-06  2.075891E-08  6.167656E-15 -1.645988E-18  2.075891E-08  0.000000E+00  0.000000E+00  0.000000E+00  0.000000E+00  0.000000E+00  0.000000E+00  0.000000E+00  0.000000E+00  3.556794E+00  9.694065E-07  1.276350E-10  3.556794E+00                                                                                                                                                                                                                                                                                                                                                                                                                                                                                              
  1.050000E+03  1.250000E+02 -4.725000E+03  3.716654E-06 -3.238962E-14  3.982360E-15  3.716654E-06  2.075897E-08 -1.811791E-16  2.227629E-17  2.075897E-08  0.000000E+00  0.000000E+00  0.000000E+00  0.000000E+00  0.000000E+00  0.000000E+00  0.000000E+00  0.000000E+00  3.556752E+00 -3.070372E-08  3.899445E-09  3.556752E+00                                                                                                                                                                                                                                                                                                                                                                                                                                                                                              
  1.225000E+03  1.250000E+02 -4.725000E+03  3.716649E-06 -1.111425E-12  5.503583E-15  3.716649E-06  2.075891E-08 -6.217019E-15  3.078561E-17  2.075891E-08  0.000000E+00  0.000000E+00  0.000000E+00  0.000000E+00  0.000000E+00  0.000000E+00  0.000000E+00  0.000000E+00  3.556794E+00 -9.778801E-07  5.436876E-09  3.556794E+00                                                                                                                                                                                                                                                                                                                                                                                                                                                                                              
  1.475000E+03  1.250000E+02 -4.725000E+03  3.716646E-06 -1.203031E-12 -2.240793E-14  3.716646E-06  2.075889E-08 -6.729439E-15 -1.253441E-16  2.075889E-08  0.000000E+00  0.000000E+00  0.000000E+00  0.000000E+00  0.000000E+00  0.000000E+00  0.000000E+00  0.000000E+00  3.556802E+00 -1.070655E-06 -2.125051E-08  3.556802E+00                                                                                                                                                                                                                                                                                                                                                                                                                                                                                              
  1.725000E+03  1.250000E+02 -4.725000E+03  3.716645E-06 -7.874837E-13 -5.696155E-14  3.716645E-06  2.075888E-08 -4.404978E-15 -3.186281E-16  2.075888E-08  0.000000E+00  0.000000E+00  0.000000E+00  0.000000E+00  0.000000E+00  0.000000E+00  0.000000E+00  0.000000E+00  3.556802E+00 -7.035331E-07 -5.414317E-08  3.556802E+00                                                                                                                                                                                                                                                                                                                                                                                                                                                                                              