Title="TREACTMECH V1.0-OMP-MPI stress-strain.tec: Total Stresses (Pa), Strains"                                                                                                                                                                                                                                                                                                                                                                                                                                                                                                                                                                                                                                                                                                                                                 
Variables= "X(m)"     "Y(m)"      "Z(m)"    "Sigma_xx"    "Sigma_yy"    "Sigma_zz"    "Sigma_yz"    "Sigma_xz"    "Sigma_xy"   "Strain_xx"   "Strain_yy"   "Strain_zz"   "Strain_yz"   "Strain_xz"   "Strain_xy"  "Vol_Strain"   "E_fail_xx"   "E_fail_yy"   "E_fail_zz"  "E_fail_yz2"  "E_fail_xz2"  "E_fail_xy2"  "E_fail_vol"                                                                                                                                                                                                                                                                                                                                                                                                                                                                                                
Zone T= "1.00000000E+10 sec" I=     9 J=    10 K=    23 F=Point
  1.250000E+02  1.250000E+02 -5.425000E+03 -1.135482E+08 -9.886612E+07 -1.259931E+08 -7.065733E-01  2.703359E+03  6.107986E+00  3.195534E-05  1.440625E-07 -6.840500E-05 -1.644418E-10  6.291564E-07  1.058718E-09 -3.630560E-05  0.000000E+00  0.000000E+00  0.000000E+00  0.000000E+00  0.000000E+00  0.000000E+00  0.000000E+00                                                                                                                                                                                                                                                                                                                                                                                                                                                                                              
  3.750000E+02  1.250000E+02 -5.425000E+03 -1.135677E+08 -9.875467E+07 -1.257917E+08 -2.478338E-02  9.613209E+03  2.058369E+01  1.788678E-05  1.458460E-07 -6.537368E-05 -5.767868E-12  2.237295E-06  3.567839E-09 -4.734105E-05  0.000000E+00  0.000000E+00  0.000000E+00  0.000000E+00  0.000000E+00  0.000000E+00  0.000000E+00                                                                                                                                                                                                                                                                                                                                                                                                                                                                                              
  6.250000E+02  1.250000E+02 -5.425000E+03 -1.136115E+08 -9.856055E+07 -1.254308E+08  1.555719E+00  1.591187E+04  2.434925E+01 -7.471849E-06  1.488919E-07 -5.920718E-05  3.620646E-10  3.703191E-06  4.220537E-09 -6.653014E-05  0.000000E+00  0.000000E+00  0.000000E+00  0.000000E+00  0.000000E+00  0.000000E+00  0.000000E+00                                                                                                                                                                                                                                                                                                                                                                                                                                                                                              
  8.750000E+02  1.250000E+02 -5.425000E+03 -1.136623E+08 -9.836647E+07 -1.250646E+08  3.430296E+00  1.165394E+04  1.454625E+01 -3.345971E-05  1.515320E-07 -5.262925E-05  7.983374E-10  2.712236E-06  2.521350E-09 -8.593743E-05  0.000000E+00  0.000000E+00  0.000000E+00  0.000000E+00  0.000000E+00  0.000000E+00  0.000000E+00                                                                                                                                                                                                                                                                                                                                                                                                                                                                                              
  1.050000E+03  1.250000E+02 -5.425000E+03 -1.136838E+08 -9.828343E+07 -1.249085E+08  4.241389E+00 -3.076211E-03 -2.892932E-03 -4.455314E-05  1.525194E-07 -4.986835E-05  9.871040E-10 -7.159306E-13 -5.014415E-13 -9.426897E-05  0.000000E+00  0.000000E+00  0.000000E+00  0.000000E+00  0.000000E+00  0.000000E+00  0.000000E+00                                                                                                                                                                                                                                                                                                                                                                                                                                                                                              
  1.225000E+03  1.250000E+02 -5.425000E+03 -1.136623E+08 -9.836647E+07 -1.250646E+08  3.434639E+00 -1.165397E+04 -1.456009E+01 -3.345969E-05  1.515317E-07 -5.262927E-05  7.993480E-10 -2.712243E-06 -2.523749E-09 -8.593743E-05  0.000000E+00  0.000000E+00  0.000000E+00  0.000000E+00  0.000000E+00  0.000000E+00  0.000000E+00                                                                                                                                                                                                                                                                                                                                                                                                                                                                                              
  1.475000E+03  1.250000E+02 -5.425000E+03 -1.136115E+08 -9.856055E+07 -1.254308E+08  1.561237E+00 -1.591189E+04 -2.435352E+01 -7.471816E-06  1.488926E-07 -5.920720E-05  3.633487E-10 -3.703196E-06 -4.221276E-09 -6.653013E-05  0.000000E+00  0.000000E+00  0.000000E+00  0.000000E+00  0.000000E+00  0.000000E+00  0.000000E+00                                                                                                                                                                                                                                                                                                                                                                                                                                                                                              
  1.725000E+03  1.250000E+02 -5.425000E+03 -1.135677E+08 -9.875467E+07 -1.257917E+08 -2.110384E-02 -9.613226E+03 -2.058848E+01  1.788682E-05  1.458489E-07 -6.537371E-05 -4.911525E-12 -2.237299E-06 -3.568670E-09 -4.734104E-05  0.000000E+00  0.000000E+00  0.000000E+00  0.000000E+00  0.000000E+00  0.000000E+00  0.000000E+00                                                                                                                                                                                                                                                                                                                                                                                                                                                                                              
  1.975000E+03  1.250000E+02 -5.425000E+03 -1.135482E+08 -9.886612E+07 -1.259931E+08 -7.034215E-01 -2.703369E+03 -6.113063E+00  3.195538E-05  1.440662E-07 -6.840503E-05 -1.637082E-10 -6.291588E-07 -1.059598E-09 -3.630559E-05  0.000000E+00  0.000000E+00  0.000000E+00  0.000000E+00  0.000000E+00  0.000000E+00  0.000000E+00                                                                                                                                                                                                                                                                                                                                                                                                                                                                                              
  1.250000E+02  1.250000E+02 -5.225000E+03 -1.099592E+08 -9.575393E+07 -1.220363E+08  5.719349E-01  8.375316E+03  7.132720E+00  3.271474E-05  1.369303E-07 -6.618067E-05  1.331072E-10  1.949198E-06  1.236338E-09 -3.332900E-05  0.000000E+00  0.000000E+00  0.000000E+00  0.000000E+00  0.000000E+00  0.000000E+00  0.000000E+00                                                                                                                                                                                                                                                                                                                                                                                                                                                                                              
  3.750000E+02  1.250000E+02 -5.225000E+03 -1.099707E+08 -9.563948E+07 -1.218399E+08  2.731566E+00  2.829519E+04  2.347351E+01  1.898121E-05  1.389706E-07 -6.402790E-05  6.357210E-10  6.585176E-06  4.068742E-09 -4.490773E-05  0.000000E+00  0.000000E+00  0.000000E+00  0.000000E+00  0.000000E+00  0.000000E+00  0.000000E+00                                                                                                                                                                                                                                                                                                                                                                                                                                                                                              
  6.250000E+02  1.250000E+02 -5.225000E+03 -1.099964E+08 -9.542668E+07 -1.214701E+08  7.483339E+00  4.625857E+04  2.886298E+01 -6.930459E-06  1.425072E-07 -5.959461E-05  1.741607E-09  1.076582E-05  5.002917E-09 -6.638256E-05  0.000000E+00  0.000000E+00  0.000000E+00  0.000000E+00  0.000000E+00  0.000000E+00  0.000000E+00                                                                                                                                                                                                                                                                                                                                                                                                                                                                                              
  8.750000E+02  1.250000E+02 -5.225000E+03 -1.100306E+08 -9.519968E+07 -1.210721E+08  1.297629E+01  3.381968E+04  1.760688E+01 -3.521699E-05  1.456550E-07 -5.465238E-05  3.019989E-09  7.870900E-06  3.051859E-09 -8.972371E-05  0.000000E+00  0.000000E+00  0.000000E+00  0.000000E+00  0.000000E+00  0.000000E+00  0.000000E+00                                                                                                                                                                                                                                                                                                                                                                                                                                                                                              
  1.050000E+03  1.250000E+02 -5.225000E+03 -1.100442E+08 -9.509777E+07 -1.208944E+08  1.539226E+01  3.399766E-02 -2.211960E-03 -4.774276E-05  1.468492E-07 -5.249429E-05  3.582262E-09  7.912322E-12 -3.834065E-13 -1.000902E-04  0.000000E+00  0.000000E+00  0.000000E+00  0.000000E+00  0.000000E+00  0.000000E+00  0.000000E+00                                                                                                                                                                                                                                                                                                                                                                                                                                                                                              
  1.225000E+03  1.250000E+02 -5.225000E+03 -1.100306E+08 -9.519968E+07 -1.210721E+08  1.297951E+01 -3.381966E+04 -1.761701E+01 -3.521698E-05  1.456553E-07 -5.465238E-05  3.020739E-09 -7.870894E-06 -3.053615E-09 -8.972371E-05  0.000000E+00  0.000000E+00  0.000000E+00  0.000000E+00  0.000000E+00  0.000000E+00  0.000000E+00                                                                                                                                                                                                                                                                                                                                                                                                                                                                                              
  1.475000E+03  1.250000E+02 -5.225000E+03 -1.099964E+08 -9.542668E+07 -1.214701E+08  7.489138E+00 -4.625852E+04 -2.886508E+01 -6.930430E-06  1.425089E-07 -5.959463E-05  1.742957E-09 -1.076581E-05 -5.003281E-09 -6.638255E-05  0.000000E+00  0.000000E+00  0.000000E+00  0.000000E+00  0.000000E+00  0.000000E+00  0.000000E+00                                                                                                                                                                                                                                                                                                                                                                                                                                                                                              
  1.725000E+03  1.250000E+02 -5.225000E+03 -1.099707E+08 -9.563948E+07 -1.218399E+08  2.737050E+00 -2.829516E+04 -2.347483E+01  1.898124E-05  1.389744E-07 -6.402793E-05  6.369972E-10 -6.585170E-06 -4.068970E-09 -4.490771E-05  0.000000E+00  0.000000E+00  0.000000E+00  0.000000E+00  0.000000E+00  0.000000E+00  0.000000E+00                                                                                                                                                                                                                                                                                                                                                                                                                                                                                              
  1.975000E+03  1.250000E+02 -5.225000E+03 -1.099592E+08 -9.575393E+07 -1.220363E+08  5.780449E-01 -8.375311E+03 -7.134867E+00  3.271478E-05  1.369349E-07 -6.618070E-05  1.345292E-10 -1.949197E-06 -1.236710E-09 -3.332898E-05  0.000000E+00  0.000000E+00  0.000000E+00  0.000000E+00  0.000000E+00  0.000000E+00  0.000000E+00                                                                                                                                                                                                                                                                                                                                                                                                                                                                                              
  1.250000E+02  1.250000E+02 -4.975000E+03 -1.054618E+08 -9.185827E+07 -1.170929E+08  6.842494E-01  1.166716E+04  9.398626E+00  3.392423E-05  1.205806E-07 -6.452518E-05  1.592463E-10  2.715315E-06  1.629095E-09 -3.048037E-05  0.000000E+00  0.000000E+00  0.000000E+00  0.000000E+00  0.000000E+00  0.000000E+00  0.000000E+00                                                                                                                                                                                                                                                                                                                                                                                                                                                                                              
  3.750000E+02  1.250000E+02 -4.975000E+03 -1.054633E+08 -9.174381E+07 -1.169057E+08  4.535352E+00  4.118697E+04  2.986415E+01  2.106652E-05  1.231638E-07 -6.313726E-05  1.055519E-09  9.585500E-06  5.176453E-09 -4.194758E-05  0.000000E+00  0.000000E+00  0.000000E+00  0.000000E+00  0.000000E+00  0.000000E+00  0.000000E+00                                                                                                                                                                                                                                                                                                                                                                                                                                                                                              
  6.250000E+02  1.250000E+02 -4.975000E+03 -1.054760E+08 -9.151430E+07 -1.165232E+08  1.287632E+01  7.262087E+04  3.829939E+01 -5.603157E-06  1.277030E-07 -5.982031E-05  2.996723E-09  1.690115E-05  6.638561E-09 -6.529577E-05  0.000000E+00  0.000000E+00  0.000000E+00  0.000000E+00  0.000000E+00  0.000000E+00  0.000000E+00                                                                                                                                                                                                                                                                                                                                                                                                                                                                                              
  8.750000E+02  1.250000E+02 -4.975000E+03 -1.055004E+08 -9.123888E+07 -1.160552E+08  2.279194E+01  5.933444E+04  2.422987E+01 -3.840690E-05  1.318986E-07 -5.505842E-05  5.304399E-09  1.380898E-05  4.199845E-09 -9.333342E-05  0.000000E+00  0.000000E+00  0.000000E+00  0.000000E+00  0.000000E+00  0.000000E+00  0.000000E+00                                                                                                                                                                                                                                                                                                                                                                                                                                                                                              
  1.050000E+03  1.250000E+02 -4.975000E+03 -1.055256E+08 -9.111138E+07 -1.158326E+08  2.733789E+01  2.782627E-02 -1.317669E-03 -5.490372E-05  1.335348E-07 -5.253329E-05  6.362384E-09  6.476046E-12 -2.283959E-13 -1.073035E-04  0.000000E+00  0.000000E+00  0.000000E+00  0.000000E+00  0.000000E+00  0.000000E+00  0.000000E+00                                                                                                                                                                                                                                                                                                                                                                                                                                                                                              
  1.225000E+03  1.250000E+02 -4.975000E+03 -1.055004E+08 -9.123888E+07 -1.160552E+08  2.279432E+01 -5.933444E+04 -2.423324E+01 -3.840689E-05  1.318994E-07 -5.505843E-05  5.304954E-09 -1.380898E-05 -4.200428E-09 -9.333341E-05  0.000000E+00  0.000000E+00  0.000000E+00  0.000000E+00  0.000000E+00  0.000000E+00  0.000000E+00                                                                                                                                                                                                                                                                                                                                                                                                                                                                                              
  1.475000E+03  1.250000E+02 -4.975000E+03 -1.054760E+08 -9.151430E+07 -1.165232E+08  1.288179E+01 -7.262083E+04 -3.829800E+01 -5.603135E-06  1.277057E-07 -5.982032E-05  2.997996E-09 -1.690114E-05 -6.638320E-09 -6.529575E-05  0.000000E+00  0.000000E+00  0.000000E+00  0.000000E+00  0.000000E+00  0.000000E+00  0.000000E+00                                                                                                                                                                                                                                                                                                                                                                                                                                                                                              
  1.725000E+03  1.250000E+02 -4.975000E+03 -1.054633E+08 -9.174381E+07 -1.169057E+08  4.542049E+00 -4.118696E+04 -2.986208E+01  2.106655E-05  1.231687E-07 -6.313727E-05  1.057077E-09 -9.585496E-06 -5.176095E-09 -4.194756E-05  0.000000E+00  0.000000E+00  0.000000E+00  0.000000E+00  0.000000E+00  0.000000E+00  0.000000E+00                                                                                                                                                                                                                                                                                                                                                                                                                                                                                              
  1.975000E+03  1.250000E+02 -4.975000E+03 -1.054618E+08 -9.185826E+07 -1.170929E+08  6.918803E-01 -1.166716E+04 -9.398171E+00  3.392427E-05  1.205865E-07 -6.452520E-05  1.610222E-10 -2.715314E-06 -1.629016E-09 -3.048035E-05  0.000000E+00  0.000000E+00  0.000000E+00  0.000000E+00  0.000000E+00  0.000000E+00  0.000000E+00                                                                                                                                                                                                                                                                                                                                                                                                                                                                                              
  1.250000E+02  1.250000E+02 -4.725000E+03 -1.009783E+08 -8.796255E+07 -1.121397E+08 -5.386217E+00  7.610707E+03  1.188967E+01  3.378705E-05  9.572798E-08 -6.224566E-05 -1.253541E-09  1.771250E-06  2.060876E-09 -2.836289E-05  0.000000E+00  0.000000E+00  0.000000E+00  0.000000E+00  0.000000E+00  0.000000E+00  0.000000E+00                                                                                                                                                                                                                                                                                                                                                                                                                                                                                              
  3.750000E+02  1.250000E+02 -4.725000E+03 -1.009575E+08 -8.784856E+07 -1.119707E+08 -8.087834E-01  3.214050E+04  3.722068E+01  2.298432E-05  9.886809E-08 -6.224974E-05 -1.882292E-10  7.480103E-06  6.451585E-09 -3.916655E-05  0.000000E+00  0.000000E+00  0.000000E+00  0.000000E+00  0.000000E+00  0.000000E+00  0.000000E+00                                                                                                                                                                                                                                                                                                                                                                                                                                                                                              
  6.250000E+02  1.250000E+02 -4.725000E+03 -1.009227E+08 -8.760222E+07 -1.115879E+08  9.602961E+00  8.536684E+04  4.960637E+01 -1.139246E-06  1.043660E-07 -6.056764E-05  2.234910E-09  1.986754E-05  8.598437E-09 -6.160252E-05  0.000000E+00  0.000000E+00  0.000000E+00  0.000000E+00  0.000000E+00  0.000000E+00  0.000000E+00                                                                                                                                                                                                                                                                                                                                                                                                                                                                                              
  8.750000E+02  1.250000E+02 -4.725000E+03 -1.009719E+08 -8.727002E+07 -1.110160E+08  2.288324E+01  9.309800E+04  3.284340E+01 -4.259743E-05  1.095271E-07 -5.448846E-05  5.325647E-09  2.166682E-05  5.692856E-09 -9.697636E-05  0.000000E+00  0.000000E+00  0.000000E+00  0.000000E+00  0.000000E+00  0.000000E+00  0.000000E+00                                                                                                                                                                                                                                                                                                                                                                                                                                                                                              
  1.050000E+03  1.250000E+02 -4.725000E+03 -1.009810E+08 -8.707252E+07 -1.106740E+08  2.941434E+01  2.500944E-02  1.247443E-03 -6.517366E-05  1.115812E-07 -5.014510E-05  6.845639E-09  5.820481E-12  2.162234E-13 -1.152072E-04  0.000000E+00  0.000000E+00  0.000000E+00  0.000000E+00  0.000000E+00  0.000000E+00  0.000000E+00                                                                                                                                                                                                                                                                                                                                                                                                                                                                                              
  1.225000E+03  1.250000E+02 -4.725000E+03 -1.009719E+08 -8.727001E+07 -1.110160E+08  2.288592E+01 -9.309801E+04 -3.284021E+01 -4.259742E-05  1.095285E-07 -5.448846E-05  5.326270E-09 -2.166682E-05 -5.692303E-09 -9.697635E-05  0.000000E+00  0.000000E+00  0.000000E+00  0.000000E+00  0.000000E+00  0.000000E+00  0.000000E+00                                                                                                                                                                                                                                                                                                                                                                                                                                                                                              
  1.475000E+03  1.250000E+02 -4.725000E+03 -1.009227E+08 -8.760222E+07 -1.115879E+08  9.607936E+00 -8.536682E+04 -4.960221E+01 -1.139231E-06  1.043698E-07 -6.056764E-05  2.236068E-09 -1.986753E-05 -8.597716E-09 -6.160251E-05  0.000000E+00  0.000000E+00  0.000000E+00  0.000000E+00  0.000000E+00  0.000000E+00  0.000000E+00                                                                                                                                                                                                                                                                                                                                                                                                                                                                                              
  1.725000E+03  1.250000E+02 -4.725000E+03 -1.009575E+08 -8.784856E+07 -1.119707E+08 -8.032468E-01 -3.214050E+04 -3.721676E+01  2.298434E-05  9.887400E-08 -6.224975E-05 -1.869407E-10 -7.480101E-06 -6.450906E-09 -3.916654E-05  0.000000E+00  0.000000E+00  0.000000E+00  0.000000E+00  0.000000E+00  0.000000E+00  0.000000E+00                                                                                                                                                                                                                                                                                                                                                                                                                                                                                              