Title="TREACTMECH V1.0-OMP-MPI stress-strain.tec: Total Stresses (Pa), Strains"                                                                                                                                                                                                                                                                                                                                                                                                                                                                                                                                                                                                                                                                                                                                                 
Variables= "X(m)"     "Y(m)"      "Z(m)"    "Sigma_xx"    "Sigma_yy"    "Sigma_zz"    "Sigma_yz"    "Sigma_xz"    "Sigma_xy"   "Strain_xx"   "Strain_yy"   "Strain_zz"   "Strain_yz"   "Strain_xz"   "Strain_xy"  "Vol_Strain"   "E_fail_xx"   "E_fail_yy"   "E_fail_zz"  "E_fail_yz2"  "E_fail_xz2"  "E_fail_xy2"  "E_fail_vol"                                                                                                                                                                                                                                                                                                                                                                                                                                                                                                
Zone T= "1.00000000E+06 sec" I=     9 J=    10 K=    23 F=Point
  1.250000E+02  1.250000E+02 -5.425000E+03 -1.139758E+08 -9.919761E+07 -1.258930E+08 -1.266497E+00  2.025779E+03  1.194031E+01  2.361924E-05  1.332250E-07 -3.101180E-05 -2.947535E-10  4.714622E-07  2.069653E-09 -7.259337E-06  0.000000E+00  0.000000E+00  0.000000E+00  0.000000E+00  0.000000E+00  0.000000E+00  0.000000E+00                                                                                                                                                                                                                                                                                                                                                                                                                                                                                              
  3.750000E+02  1.250000E+02 -5.425000E+03 -1.139905E+08 -9.912410E+07 -1.257362E+08  1.965964E-02  7.305644E+03  3.499711E+01  1.325452E-05  1.367754E-07 -2.855232E-05  4.575414E-12  1.700252E-06  6.066166E-09 -1.516102E-05  0.000000E+00  0.000000E+00  0.000000E+00  0.000000E+00  0.000000E+00  0.000000E+00  0.000000E+00                                                                                                                                                                                                                                                                                                                                                                                                                                                                                              
  6.250000E+02  1.250000E+02 -5.425000E+03 -1.140239E+08 -9.899591E+07 -1.254548E+08  2.541064E+00  1.218129E+04  3.951020E+01 -5.485376E-06  1.424083E-07 -2.356310E-05  5.913852E-10  2.834967E-06  6.848435E-09 -2.890607E-05  0.000000E+00  0.000000E+00  0.000000E+00  0.000000E+00  0.000000E+00  0.000000E+00  0.000000E+00                                                                                                                                                                                                                                                                                                                                                                                                                                                                                              
  8.750000E+02  1.250000E+02 -5.425000E+03 -1.140627E+08 -9.886826E+07 -1.251695E+08  5.192123E+00  9.035363E+03  2.265952E+01 -2.467013E-05  1.470970E-07 -1.823983E-05  1.208370E-09  2.102812E-06  3.927649E-09 -4.276286E-05  0.000000E+00  0.000000E+00  0.000000E+00  0.000000E+00  0.000000E+00  0.000000E+00  0.000000E+00                                                                                                                                                                                                                                                                                                                                                                                                                                                                                              
  1.050000E+03  1.250000E+02 -5.425000E+03 -1.140796E+08 -9.880583E+07 -1.250400E+08  6.278288E+00 -5.916051E-03 -4.523209E-03 -3.358962E-05  1.488100E-07 -1.600027E-05  1.461154E-09 -1.376850E-12 -7.840230E-13 -4.944108E-05  0.000000E+00  0.000000E+00  0.000000E+00  0.000000E+00  0.000000E+00  0.000000E+00  0.000000E+00                                                                                                                                                                                                                                                                                                                                                                                                                                                                                              
  1.225000E+03  1.250000E+02 -5.425000E+03 -1.140627E+08 -9.886826E+07 -1.251695E+08  5.184022E+00 -9.035286E+03 -2.257985E+01 -2.467021E-05  1.471375E-07 -1.823979E-05  1.206484E-09 -2.102794E-06 -3.913840E-09 -4.276286E-05  0.000000E+00  0.000000E+00  0.000000E+00  0.000000E+00  0.000000E+00  0.000000E+00  0.000000E+00                                                                                                                                                                                                                                                                                                                                                                                                                                                                                              
  1.475000E+03  1.250000E+02 -5.425000E+03 -1.140239E+08 -9.899591E+07 -1.254548E+08  2.522692E+00 -1.218122E+04 -3.948810E+01 -5.485528E-06  1.424926E-07 -2.356303E-05  5.871095E-10 -2.834952E-06 -6.844605E-09 -2.890607E-05  0.000000E+00  0.000000E+00  0.000000E+00  0.000000E+00  0.000000E+00  0.000000E+00  0.000000E+00                                                                                                                                                                                                                                                                                                                                                                                                                                                                                              
  1.725000E+03  1.250000E+02 -5.425000E+03 -1.139905E+08 -9.912410E+07 -1.257362E+08  1.567130E-02 -7.305569E+03 -3.496434E+01  1.325432E-05  1.368827E-07 -2.855225E-05  3.647203E-12 -1.700235E-06 -6.060486E-09 -1.516105E-05  0.000000E+00  0.000000E+00  0.000000E+00  0.000000E+00  0.000000E+00  0.000000E+00  0.000000E+00                                                                                                                                                                                                                                                                                                                                                                                                                                                                                              
  1.975000E+03  1.250000E+02 -5.425000E+03 -1.139758E+08 -9.919761E+07 -1.258930E+08 -1.258705E+00 -2.025740E+03 -1.192537E+01  2.361901E-05  1.333465E-07 -3.101174E-05 -2.929401E-10 -4.714531E-07 -2.067065E-09 -7.259382E-06  0.000000E+00  0.000000E+00  0.000000E+00  0.000000E+00  0.000000E+00  0.000000E+00  0.000000E+00                                                                                                                                                                                                                                                                                                                                                                                                                                                                                              
  1.250000E+02  1.250000E+02 -5.225000E+03 -1.103843E+08 -9.608035E+07 -1.219336E+08 -2.743481E+00  6.756436E+03  1.383311E+01  2.415332E-05  1.258336E-07 -2.900376E-05 -6.384940E-10  1.572434E-06  2.397738E-09 -4.724609E-06  0.000000E+00  0.000000E+00  0.000000E+00  0.000000E+00  0.000000E+00  0.000000E+00  0.000000E+00                                                                                                                                                                                                                                                                                                                                                                                                                                                                                              
  3.750000E+02  1.250000E+02 -5.225000E+03 -1.103948E+08 -9.600657E+07 -1.217808E+08  1.499433E+00  2.253460E+04  4.015652E+01  1.403178E-05  1.298997E-07 -2.710008E-05  3.489649E-10  5.244509E-06  6.960463E-09 -1.293840E-05  0.000000E+00  0.000000E+00  0.000000E+00  0.000000E+00  0.000000E+00  0.000000E+00  0.000000E+00                                                                                                                                                                                                                                                                                                                                                                                                                                                                                              
  6.250000E+02  1.250000E+02 -5.225000E+03 -1.104164E+08 -9.586809E+07 -1.214925E+08  9.499766E+00  3.652810E+04  4.660105E+01 -5.081609E-06  1.364173E-07 -2.328824E-05  2.210893E-09  8.501235E-06  8.077515E-09 -2.823343E-05  0.000000E+00  0.000000E+00  0.000000E+00  0.000000E+00  0.000000E+00  0.000000E+00  0.000000E+00                                                                                                                                                                                                                                                                                                                                                                                                                                                                                              
  8.750000E+02  1.250000E+02 -5.225000E+03 -1.104441E+08 -9.572065E+07 -1.211830E+08  1.770979E+01  2.679335E+04  2.716414E+01 -2.590468E-05  1.419390E-07 -1.911509E-05  4.121622E-09  6.235653E-06  4.708451E-09 -4.487783E-05  0.000000E+00  0.000000E+00  0.000000E+00  0.000000E+00  0.000000E+00  0.000000E+00  0.000000E+00                                                                                                                                                                                                                                                                                                                                                                                                                                                                                              
  1.050000E+03  1.250000E+02 -5.225000E+03 -1.104551E+08 -9.564434E+07 -1.210349E+08  2.109426E+01 -1.689129E-01  3.914122E-03 -3.599252E-05  1.439750E-07 -1.730710E-05  4.909296E-09 -3.931132E-11  6.784478E-13 -5.315565E-05  0.000000E+00  0.000000E+00  0.000000E+00  0.000000E+00  0.000000E+00  0.000000E+00  0.000000E+00                                                                                                                                                                                                                                                                                                                                                                                                                                                                                              
  1.225000E+03  1.250000E+02 -5.225000E+03 -1.104441E+08 -9.572065E+07 -1.211830E+08  1.767001E+01 -2.679359E+04 -2.707811E+01 -2.590475E-05  1.419749E-07 -1.911507E-05  4.112366E-09 -6.235707E-06 -4.693539E-09 -4.487784E-05  0.000000E+00  0.000000E+00  0.000000E+00  0.000000E+00  0.000000E+00  0.000000E+00  0.000000E+00                                                                                                                                                                                                                                                                                                                                                                                                                                                                                              
  1.475000E+03  1.250000E+02 -5.225000E+03 -1.104164E+08 -9.586809E+07 -1.214925E+08  9.441793E+00 -3.652843E+04 -4.657158E+01 -5.081748E-06  1.364938E-07 -2.328820E-05  2.197401E-09 -8.501309E-06 -8.072408E-09 -2.823346E-05  0.000000E+00  0.000000E+00  0.000000E+00  0.000000E+00  0.000000E+00  0.000000E+00  0.000000E+00                                                                                                                                                                                                                                                                                                                                                                                                                                                                                              
  1.725000E+03  1.250000E+02 -5.225000E+03 -1.103948E+08 -9.600657E+07 -1.217808E+08  1.451337E+00 -2.253482E+04 -4.012464E+01  1.403160E-05  1.299998E-07 -2.710003E-05  3.377717E-10 -5.244558E-06 -6.954938E-09 -1.293843E-05  0.000000E+00  0.000000E+00  0.000000E+00  0.000000E+00  0.000000E+00  0.000000E+00  0.000000E+00                                                                                                                                                                                                                                                                                                                                                                                                                                                                                              
  1.975000E+03  1.250000E+02 -5.225000E+03 -1.103843E+08 -9.608035E+07 -1.219336E+08 -2.783450E+00 -6.756512E+03 -1.382262E+01  2.415310E-05  1.259485E-07 -2.900371E-05 -6.477960E-10 -1.572452E-06 -2.395920E-09 -4.724660E-06  0.000000E+00  0.000000E+00  0.000000E+00  0.000000E+00  0.000000E+00  0.000000E+00  0.000000E+00                                                                                                                                                                                                                                                                                                                                                                                                                                                                                              
  1.250000E+02  1.250000E+02 -4.975000E+03 -1.058807E+08 -9.217672E+07 -1.169870E+08 -9.707344E+00  1.094041E+04  1.806639E+01  2.520242E-05  1.081460E-07 -2.775958E-05 -2.259203E-09  2.546177E-06  3.131508E-09 -2.449017E-06  0.000000E+00  0.000000E+00  0.000000E+00  0.000000E+00  0.000000E+00  0.000000E+00  0.000000E+00                                                                                                                                                                                                                                                                                                                                                                                                                                                                                              
  3.750000E+02  1.250000E+02 -4.975000E+03 -1.058871E+08 -9.210548E+07 -1.168401E+08 -2.563994E+00  3.725925E+04  5.146900E+01  1.566904E-05  1.133221E-07 -2.612343E-05 -5.967216E-10  8.671395E-06  8.921293E-09 -1.034107E-05  0.000000E+00  0.000000E+00  0.000000E+00  0.000000E+00  0.000000E+00  0.000000E+00  0.000000E+00                                                                                                                                                                                                                                                                                                                                                                                                                                                                                              
  6.250000E+02  1.250000E+02 -4.975000E+03 -1.059079E+08 -9.196255E+07 -1.165411E+08  1.134402E+01  6.269122E+04  6.222460E+01 -4.191061E-06  1.217581E-07 -2.252443E-05  2.640110E-09  1.459021E-05  1.078560E-08 -2.659374E-05  0.000000E+00  0.000000E+00  0.000000E+00  0.000000E+00  0.000000E+00  0.000000E+00  0.000000E+00                                                                                                                                                                                                                                                                                                                                                                                                                                                                                              
  8.750000E+02  1.250000E+02 -4.975000E+03 -1.059352E+08 -9.178945E+07 -1.161767E+08  2.675229E+01  4.970844E+04  3.787903E+01 -2.837236E-05  1.291695E-07 -1.787332E-05  6.226096E-09  1.156871E-05  6.565698E-09 -4.611651E-05  0.000000E+00  0.000000E+00  0.000000E+00  0.000000E+00  0.000000E+00  0.000000E+00  0.000000E+00                                                                                                                                                                                                                                                                                                                                                                                                                                                                                              
  1.050000E+03  1.250000E+02 -4.975000E+03 -1.059567E+08 -9.169673E+07 -1.159912E+08  3.356161E+01 -1.630017E-01 -9.700053E-03 -4.153895E-05  1.319765E-07 -1.555395E-05  7.810839E-09 -3.793561E-11 -1.681342E-12 -5.696092E-05  0.000000E+00  0.000000E+00  0.000000E+00  0.000000E+00  0.000000E+00  0.000000E+00  0.000000E+00                                                                                                                                                                                                                                                                                                                                                                                                                                                                                              
  1.225000E+03  1.250000E+02 -4.975000E+03 -1.059352E+08 -9.178945E+07 -1.161767E+08  2.671127E+01 -4.970867E+04 -3.779842E+01 -2.837241E-05  1.291971E-07 -1.787331E-05  6.216548E-09 -1.156877E-05 -6.551727E-09 -4.611652E-05  0.000000E+00  0.000000E+00  0.000000E+00  0.000000E+00  0.000000E+00  0.000000E+00  0.000000E+00                                                                                                                                                                                                                                                                                                                                                                                                                                                                                              
  1.475000E+03  1.250000E+02 -4.975000E+03 -1.059079E+08 -9.196255E+07 -1.165411E+08  1.128460E+01 -6.269153E+04 -6.218881E+01 -4.191173E-06  1.218214E-07 -2.252442E-05  2.626279E-09 -1.459028E-05 -1.077939E-08 -2.659377E-05  0.000000E+00  0.000000E+00  0.000000E+00  0.000000E+00  0.000000E+00  0.000000E+00  0.000000E+00                                                                                                                                                                                                                                                                                                                                                                                                                                                                                              
  1.725000E+03  1.250000E+02 -4.975000E+03 -1.058871E+08 -9.210548E+07 -1.168401E+08 -2.621965E+00 -3.725947E+04 -5.144732E+01  1.566889E-05  1.134068E-07 -2.612341E-05 -6.102135E-10 -8.671446E-06 -8.917536E-09 -1.034111E-05  0.000000E+00  0.000000E+00  0.000000E+00  0.000000E+00  0.000000E+00  0.000000E+00  0.000000E+00                                                                                                                                                                                                                                                                                                                                                                                                                                                                                              
  1.975000E+03  1.250000E+02 -4.975000E+03 -1.058807E+08 -9.217671E+07 -1.169870E+08 -9.767602E+00 -1.094050E+04 -1.805816E+01  2.520224E-05  1.082436E-07 -2.775954E-05 -2.273227E-09 -2.546196E-06 -3.130081E-09 -2.449060E-06  0.000000E+00  0.000000E+00  0.000000E+00  0.000000E+00  0.000000E+00  0.000000E+00  0.000000E+00                                                                                                                                                                                                                                                                                                                                                                                                                                                                                              
  1.250000E+02  1.250000E+02 -4.725000E+03 -1.014033E+08 -8.829477E+07 -1.120354E+08 -1.249478E+01  1.030320E+04  2.158569E+01  2.572945E-05  8.167223E-08 -2.442699E-05 -2.907926E-09  2.397877E-06  3.741520E-09  1.384133E-06  0.000000E+00  0.000000E+00  0.000000E+00  0.000000E+00  0.000000E+00  0.000000E+00  0.000000E+00                                                                                                                                                                                                                                                                                                                                                                                                                                                                                              
  3.750000E+02  1.250000E+02 -4.725000E+03 -1.013921E+08 -8.822215E+07 -1.119025E+08 -7.684187E+00  3.804457E+04  6.127266E+01  1.767978E-05  8.766995E-08 -2.397517E-05 -1.788351E-09  8.854164E-06  1.062059E-08 -6.207723E-06  0.000000E+00  0.000000E+00  0.000000E+00  0.000000E+00  0.000000E+00  0.000000E+00  0.000000E+00                                                                                                                                                                                                                                                                                                                                                                                                                                                                                              
  6.250000E+02  1.250000E+02 -4.725000E+03 -1.013766E+08 -8.806183E+07 -1.115954E+08  3.530783E+00  8.665525E+04  7.718625E+01 -6.516002E-07  9.752822E-08 -2.139033E-05  8.217238E-10  2.016739E-05  1.337895E-08 -2.194441E-05  0.000000E+00  0.000000E+00  0.000000E+00  0.000000E+00  0.000000E+00  0.000000E+00  0.000000E+00                                                                                                                                                                                                                                                                                                                                                                                                                                                                                              
  8.750000E+02  1.250000E+02 -4.725000E+03 -1.014401E+08 -8.785578E+07 -1.111439E+08  1.760632E+01  8.769890E+04  4.919357E+01 -3.240840E-05  1.063588E-07 -1.480901E-05  4.097542E-09  2.041028E-05  8.526885E-09 -4.711105E-05  0.000000E+00  0.000000E+00  0.000000E+00  0.000000E+00  0.000000E+00  0.000000E+00  0.000000E+00                                                                                                                                                                                                                                                                                                                                                                                                                                                                                              
  1.050000E+03  1.250000E+02 -4.725000E+03 -1.014668E+08 -8.771329E+07 -1.108574E+08  2.431699E+01 -1.302582E-01 -1.662193E-02 -5.174528E-05  1.097592E-07 -1.051341E-05  5.659325E-09 -3.031518E-11 -2.881134E-12 -6.214893E-05  0.000000E+00  0.000000E+00  0.000000E+00  0.000000E+00  0.000000E+00  0.000000E+00  0.000000E+00                                                                                                                                                                                                                                                                                                                                                                                                                                                                                              
  1.225000E+03  1.250000E+02 -4.725000E+03 -1.014401E+08 -8.785578E+07 -1.111439E+08  1.759109E+01 -8.769910E+04 -4.914144E+01 -3.240843E-05  1.063799E-07 -1.480901E-05  4.093999E-09 -2.041033E-05 -8.517850E-09 -4.711106E-05  0.000000E+00  0.000000E+00  0.000000E+00  0.000000E+00  0.000000E+00  0.000000E+00  0.000000E+00                                                                                                                                                                                                                                                                                                                                                                                                                                                                                              
  1.475000E+03  1.250000E+02 -4.725000E+03 -1.013766E+08 -8.806183E+07 -1.115954E+08  3.487529E+00 -8.665551E+04 -7.716160E+01 -6.516843E-07  9.757815E-08 -2.139032E-05  8.116572E-10 -2.016745E-05 -1.337468E-08 -2.194443E-05  0.000000E+00  0.000000E+00  0.000000E+00  0.000000E+00  0.000000E+00  0.000000E+00  0.000000E+00                                                                                                                                                                                                                                                                                                                                                                                                                                                                                              
  1.725000E+03  1.250000E+02 -4.725000E+03 -1.013921E+08 -8.822215E+07 -1.119025E+08 -7.741521E+00 -3.804475E+04 -6.126405E+01  1.767967E-05  8.773770E-08 -2.397516E-05 -1.801695E-09 -8.854206E-06 -1.061910E-08 -6.207750E-06  0.000000E+00  0.000000E+00  0.000000E+00  0.000000E+00  0.000000E+00  0.000000E+00  0.000000E+00                                                                                                                                                                                                                                                                                                                                                                                                                                                                                              