Title="TREACTMECH V1.0-OMP-MPI stress-strain.tec: Total Stresses (Pa), Strains"                                                                                                                                                                                                                                                                                                                                                                                                                                                                                                                                                                                                                                                                                                                                                 
Variables= "X(m)"     "Y(m)"      "Z(m)"    "Sigma_xx"    "Sigma_yy"    "Sigma_zz"    "Sigma_yz"    "Sigma_xz"    "Sigma_xy"   "Strain_xx"   "Strain_yy"   "Strain_zz"   "Strain_yz"   "Strain_xz"   "Strain_xy"  "Vol_Strain"   "E_fail_xx"   "E_fail_yy"   "E_fail_zz"  "E_fail_yz2"  "E_fail_xz2"  "E_fail_xy2"  "E_fail_vol"                                                                                                                                                                                                                                                                                                                                                                                                                                                                                                
Zone T= "5.18400000E+05 sec" I=     9 J=    10 K=    23 F=Point
  1.250000E+02  1.250000E+02 -5.425000E+03 -1.139769E+08 -9.919700E+07 -1.258912E+08 -8.104234E-01  1.969597E+03  1.180143E+01  2.347426E-05  1.345224E-07 -3.090434E-05 -1.886109E-10  4.583869E-07  2.045581E-09 -7.295562E-06  0.000000E+00  0.000000E+00  0.000000E+00  0.000000E+00  0.000000E+00  0.000000E+00  0.000000E+00                                                                                                                                                                                                                                                                                                                                                                                                                                                                                              
  3.750000E+02  1.250000E+02 -5.425000E+03 -1.139912E+08 -9.912366E+07 -1.257350E+08  4.289660E-01  7.120702E+03  3.466949E+01  1.315869E-05  1.380319E-07 -2.848610E-05  9.983382E-11  1.657210E-06  6.009378E-09 -1.518938E-05  0.000000E+00  0.000000E+00  0.000000E+00  0.000000E+00  0.000000E+00  0.000000E+00  0.000000E+00                                                                                                                                                                                                                                                                                                                                                                                                                                                                                              
  6.250000E+02  1.250000E+02 -5.425000E+03 -1.140237E+08 -9.899585E+07 -1.254550E+08  2.873683E+00  1.187111E+04  3.910269E+01 -5.475350E-06  1.436002E-07 -2.358476E-05  6.687960E-10  2.762780E-06  6.777799E-09 -2.891651E-05  0.000000E+00  0.000000E+00  0.000000E+00  0.000000E+00  0.000000E+00  0.000000E+00  0.000000E+00                                                                                                                                                                                                                                                                                                                                                                                                                                                                                              
  8.750000E+02  1.250000E+02 -5.425000E+03 -1.140614E+08 -9.886857E+07 -1.251713E+08  5.463713E+00  8.768584E+03  2.245221E+01 -2.453490E-05  1.482293E-07 -1.836485E-05  1.271577E-09  2.040724E-06  3.891716E-09 -4.275152E-05  0.000000E+00  0.000000E+00  0.000000E+00  0.000000E+00  0.000000E+00  0.000000E+00  0.000000E+00                                                                                                                                                                                                                                                                                                                                                                                                                                                                                              
  1.050000E+03  1.250000E+02 -5.425000E+03 -1.140777E+08 -9.880946E+07 -1.250457E+08  6.537907E+00  6.620824E-03 -1.062325E-02 -3.311279E-05  1.499151E-07 -1.617284E-05  1.521576E-09  1.540873E-12 -1.841364E-12 -4.913571E-05  0.000000E+00  0.000000E+00  0.000000E+00  0.000000E+00  0.000000E+00  0.000000E+00  0.000000E+00                                                                                                                                                                                                                                                                                                                                                                                                                                                                                              
  1.225000E+03  1.250000E+02 -5.425000E+03 -1.140614E+08 -9.886857E+07 -1.251713E+08  5.476696E+00 -8.768552E+03 -2.242037E+01 -2.453494E-05  1.482465E-07 -1.836483E-05  1.274599E-09 -2.040717E-06 -3.886198E-09 -4.275153E-05  0.000000E+00  0.000000E+00  0.000000E+00  0.000000E+00  0.000000E+00  0.000000E+00  0.000000E+00                                                                                                                                                                                                                                                                                                                                                                                                                                                                                              
  1.475000E+03  1.250000E+02 -5.425000E+03 -1.140237E+08 -9.899585E+07 -1.254550E+08  2.878745E+00 -1.187110E+04 -3.909099E+01 -5.475408E-06  1.436382E-07 -2.358474E-05  6.699741E-10 -2.762777E-06 -6.775771E-09 -2.891651E-05  0.000000E+00  0.000000E+00  0.000000E+00  0.000000E+00  0.000000E+00  0.000000E+00  0.000000E+00                                                                                                                                                                                                                                                                                                                                                                                                                                                                                              
  1.725000E+03  1.250000E+02 -5.425000E+03 -1.139912E+08 -9.912366E+07 -1.257350E+08  4.346662E-01 -7.120680E+03 -3.465393E+01  1.315861E-05  1.380823E-07 -2.848608E-05  1.011604E-10 -1.657205E-06 -6.006680E-09 -1.518939E-05  0.000000E+00  0.000000E+00  0.000000E+00  0.000000E+00  0.000000E+00  0.000000E+00  0.000000E+00                                                                                                                                                                                                                                                                                                                                                                                                                                                                                              
  1.975000E+03  1.250000E+02 -5.425000E+03 -1.139769E+08 -9.919700E+07 -1.258912E+08 -8.011669E-01 -1.969576E+03 -1.179157E+01  2.347417E-05  1.345808E-07 -3.090433E-05 -1.864566E-10 -4.583822E-07 -2.043871E-09 -7.295579E-06  0.000000E+00  0.000000E+00  0.000000E+00  0.000000E+00  0.000000E+00  0.000000E+00  0.000000E+00                                                                                                                                                                                                                                                                                                                                                                                                                                                                                              
  1.250000E+02  1.250000E+02 -5.225000E+03 -1.103849E+08 -9.607894E+07 -1.219315E+08 -8.071912E-01  6.581202E+03  1.360013E+01  2.397972E-05  1.273892E-07 -2.894555E-05 -1.878587E-10  1.531652E-06  2.357356E-09 -4.838448E-06  0.000000E+00  0.000000E+00  0.000000E+00  0.000000E+00  0.000000E+00  0.000000E+00  0.000000E+00                                                                                                                                                                                                                                                                                                                                                                                                                                                                                              
  3.750000E+02  1.250000E+02 -5.225000E+03 -1.103951E+08 -9.600543E+07 -1.217794E+08  3.182474E+00  2.195778E+04  3.959155E+01  1.390497E-05  1.313862E-07 -2.706939E-05  7.406615E-10  5.110264E-06  6.862535E-09 -1.303304E-05  0.000000E+00  0.000000E+00  0.000000E+00  0.000000E+00  0.000000E+00  0.000000E+00  0.000000E+00                                                                                                                                                                                                                                                                                                                                                                                                                                                                                              
  6.250000E+02  1.250000E+02 -5.225000E+03 -1.104161E+08 -9.586785E+07 -1.214926E+08  1.081248E+01  3.566732E+04  4.592402E+01 -5.076529E-06  1.377974E-07 -2.331182E-05  2.516403E-09  8.300902E-06  7.960163E-09 -2.825056E-05  0.000000E+00  0.000000E+00  0.000000E+00  0.000000E+00  0.000000E+00  0.000000E+00  0.000000E+00                                                                                                                                                                                                                                                                                                                                                                                                                                                                                              
  8.750000E+02  1.250000E+02 -5.225000E+03 -1.104433E+08 -9.572188E+07 -1.211851E+08  1.873633E+01  2.616074E+04  2.680762E+01 -2.572814E-05  1.432268E-07 -1.919365E-05  4.360530E-09  6.088424E-06  4.646654E-09 -4.477856E-05  0.000000E+00  0.000000E+00  0.000000E+00  0.000000E+00  0.000000E+00  0.000000E+00  0.000000E+00                                                                                                                                                                                                                                                                                                                                                                                                                                                                                              
  1.050000E+03  1.250000E+02 -5.225000E+03 -1.104542E+08 -9.565020E+07 -1.210419E+08  2.202754E+01 -7.310966E-02 -3.198545E-03 -3.539947E-05  1.452255E-07 -1.740820E-05  5.126499E-09 -1.701491E-11 -5.544145E-13 -5.266245E-05  0.000000E+00  0.000000E+00  0.000000E+00  0.000000E+00  0.000000E+00  0.000000E+00  0.000000E+00                                                                                                                                                                                                                                                                                                                                                                                                                                                                                              
  1.225000E+03  1.250000E+02 -5.225000E+03 -1.104433E+08 -9.572188E+07 -1.211851E+08  1.871836E+01 -2.616084E+04 -2.677444E+01 -2.572817E-05  1.432428E-07 -1.919364E-05  4.356349E-09 -6.088447E-06 -4.640902E-09 -4.477857E-05  0.000000E+00  0.000000E+00  0.000000E+00  0.000000E+00  0.000000E+00  0.000000E+00  0.000000E+00                                                                                                                                                                                                                                                                                                                                                                                                                                                                                              
  1.475000E+03  1.250000E+02 -5.225000E+03 -1.104161E+08 -9.586785E+07 -1.214926E+08  1.078970E+01 -3.566743E+04 -4.590920E+01 -5.076584E-06  1.378329E-07 -2.331181E-05  2.511102E-09 -8.300929E-06 -7.957594E-09 -2.825056E-05  0.000000E+00  0.000000E+00  0.000000E+00  0.000000E+00  0.000000E+00  0.000000E+00  0.000000E+00                                                                                                                                                                                                                                                                                                                                                                                                                                                                                              
  1.725000E+03  1.250000E+02 -5.225000E+03 -1.103951E+08 -9.600543E+07 -1.217794E+08  3.165846E+00 -2.195787E+04 -3.957265E+01  1.390490E-05  1.314343E-07 -2.706938E-05  7.367915E-10 -5.110283E-06 -6.859259E-09 -1.303305E-05  0.000000E+00  0.000000E+00  0.000000E+00  0.000000E+00  0.000000E+00  0.000000E+00  0.000000E+00                                                                                                                                                                                                                                                                                                                                                                                                                                                                                              
  1.975000E+03  1.250000E+02 -5.225000E+03 -1.103849E+08 -9.607894E+07 -1.219315E+08 -8.206071E-01 -6.581232E+03 -1.359224E+01  2.397963E-05  1.274453E-07 -2.894554E-05 -1.909810E-10 -1.531659E-06 -2.355988E-09 -4.838465E-06  0.000000E+00  0.000000E+00  0.000000E+00  0.000000E+00  0.000000E+00  0.000000E+00  0.000000E+00                                                                                                                                                                                                                                                                                                                                                                                                                                                                                              
  1.250000E+02  1.250000E+02 -4.975000E+03 -1.058819E+08 -9.217495E+07 -1.169844E+08 -5.538574E+00  1.054705E+04  1.745079E+01  2.494773E-05  1.104392E-07 -2.768684E-05 -1.289000E-09  2.454630E-06  3.024804E-09 -2.628670E-06  0.000000E+00  0.000000E+00  0.000000E+00  0.000000E+00  0.000000E+00  0.000000E+00  0.000000E+00                                                                                                                                                                                                                                                                                                                                                                                                                                                                                              
  3.750000E+02  1.250000E+02 -4.975000E+03 -1.058877E+08 -9.210375E+07 -1.168380E+08  9.404262E-01  3.612060E+04  5.002021E+01  1.547079E-05  1.154418E-07 -2.608603E-05  2.188667E-10  8.406396E-06  8.670171E-09 -1.049979E-05  0.000000E+00  0.000000E+00  0.000000E+00  0.000000E+00  0.000000E+00  0.000000E+00  0.000000E+00                                                                                                                                                                                                                                                                                                                                                                                                                                                                                              
  6.250000E+02  1.250000E+02 -4.975000E+03 -1.059076E+08 -9.196205E+07 -1.165410E+08  1.389959E+01  6.091349E+04  6.059153E+01 -4.212772E-06  1.236209E-07 -2.256121E-05  3.234871E-09  1.417648E-05  1.050253E-08 -2.665036E-05  0.000000E+00  0.000000E+00  0.000000E+00  0.000000E+00  0.000000E+00  0.000000E+00  0.000000E+00                                                                                                                                                                                                                                                                                                                                                                                                                                                                                              
  8.750000E+02  1.250000E+02 -4.975000E+03 -1.059332E+08 -9.179069E+07 -1.161796E+08  2.857199E+01  4.822843E+04  3.702099E+01 -2.808878E-05  1.308229E-07 -1.801945E-05  6.649598E-09  1.122427E-05  6.416971E-09 -4.597741E-05  0.000000E+00  0.000000E+00  0.000000E+00  0.000000E+00  0.000000E+00  0.000000E+00  0.000000E+00                                                                                                                                                                                                                                                                                                                                                                                                                                                                                              
  1.050000E+03  1.250000E+02 -4.975000E+03 -1.059530E+08 -9.170400E+07 -1.160009E+08  3.513876E+01 -7.771531E-02 -2.489864E-02 -4.058438E-05  1.335541E-07 -1.575846E-05  8.177890E-09 -1.808679E-11 -4.315764E-12 -5.620929E-05  0.000000E+00  0.000000E+00  0.000000E+00  0.000000E+00  0.000000E+00  0.000000E+00  0.000000E+00                                                                                                                                                                                                                                                                                                                                                                                                                                                                                              
  1.225000E+03  1.250000E+02 -4.975000E+03 -1.059332E+08 -9.179069E+07 -1.161796E+08  2.855053E+01 -4.822854E+04 -3.698916E+01 -2.808880E-05  1.308342E-07 -1.801945E-05  6.644604E-09 -1.122429E-05 -6.411454E-09 -4.597741E-05  0.000000E+00  0.000000E+00  0.000000E+00  0.000000E+00  0.000000E+00  0.000000E+00  0.000000E+00                                                                                                                                                                                                                                                                                                                                                                                                                                                                                              
  1.475000E+03  1.250000E+02 -4.975000E+03 -1.059076E+08 -9.196205E+07 -1.165410E+08  1.387698E+01 -6.091360E+04 -6.056449E+01 -4.212819E-06  1.236503E-07 -2.256121E-05  3.229607E-09 -1.417650E-05 -1.049784E-08 -2.665037E-05  0.000000E+00  0.000000E+00  0.000000E+00  0.000000E+00  0.000000E+00  0.000000E+00  0.000000E+00                                                                                                                                                                                                                                                                                                                                                                                                                                                                                              
  1.725000E+03  1.250000E+02 -4.975000E+03 -1.058877E+08 -9.210375E+07 -1.168380E+08  9.202420E-01 -3.612068E+04 -5.000535E+01  1.547073E-05  1.154833E-07 -2.608602E-05  2.141692E-10 -8.406415E-06 -8.667594E-09 -1.049981E-05  0.000000E+00  0.000000E+00  0.000000E+00  0.000000E+00  0.000000E+00  0.000000E+00  0.000000E+00                                                                                                                                                                                                                                                                                                                                                                                                                                                                                              
  1.975000E+03  1.250000E+02 -4.975000E+03 -1.058819E+08 -9.217495E+07 -1.169844E+08 -5.562789E+00 -1.054709E+04 -1.744437E+01  2.494766E-05  1.104877E-07 -2.768683E-05 -1.294635E-09 -2.454638E-06 -3.023691E-09 -2.628683E-06  0.000000E+00  0.000000E+00  0.000000E+00  0.000000E+00  0.000000E+00  0.000000E+00  0.000000E+00                                                                                                                                                                                                                                                                                                                                                                                                                                                                                              
  1.250000E+02  1.250000E+02 -4.725000E+03 -1.013958E+08 -8.828302E+07 -1.120318E+08 -1.031800E+01  9.984164E+03  2.055276E+01  2.536318E-05  8.470521E-08 -2.512987E-05 -2.401322E-09  2.323628E-06  3.562479E-09  3.180108E-07  0.000000E+00  0.000000E+00  0.000000E+00  0.000000E+00  0.000000E+00  0.000000E+00  0.000000E+00                                                                                                                                                                                                                                                                                                                                                                                                                                                                                              
  3.750000E+02  1.250000E+02 -4.725000E+03 -1.013856E+08 -8.821220E+07 -1.118996E+08 -5.745193E+00  3.710647E+04  5.890017E+01  1.738977E-05  9.042288E-08 -2.458555E-05 -1.337087E-09  8.635838E-06  1.020936E-08 -7.105352E-06  0.000000E+00  0.000000E+00  0.000000E+00  0.000000E+00  0.000000E+00  0.000000E+00  0.000000E+00                                                                                                                                                                                                                                                                                                                                                                                                                                                                                              
  6.250000E+02  1.250000E+02 -4.725000E+03 -1.013713E+08 -8.805552E+07 -1.115943E+08  5.222858E+00  8.504041E+04  7.460958E+01 -7.373933E-07  9.988237E-08 -2.183732E-05  1.215523E-09  1.979157E-05  1.293233E-08 -2.247483E-05  0.000000E+00  0.000000E+00  0.000000E+00  0.000000E+00  0.000000E+00  0.000000E+00  0.000000E+00                                                                                                                                                                                                                                                                                                                                                                                                                                                                                              
  8.750000E+02  1.250000E+02 -4.725000E+03 -1.014367E+08 -8.785806E+07 -1.111484E+08  1.922059E+01  8.682545E+04  4.789535E+01 -3.191695E-05  1.084079E-07 -1.499943E-05  4.473234E-09  2.020700E-05  8.301861E-09 -4.680797E-05  0.000000E+00  0.000000E+00  0.000000E+00  0.000000E+00  0.000000E+00  0.000000E+00  0.000000E+00                                                                                                                                                                                                                                                                                                                                                                                                                                                                                              
  1.050000E+03  1.250000E+02 -4.725000E+03 -1.014681E+08 -8.772898E+07 -1.108735E+08  2.594737E+01 -5.083643E-02 -2.619562E-02 -5.049264E-05  1.117061E-07 -1.054515E-05  6.038766E-09 -1.183123E-11 -4.540574E-12 -6.092609E-05  0.000000E+00  0.000000E+00  0.000000E+00  0.000000E+00  0.000000E+00  0.000000E+00  0.000000E+00                                                                                                                                                                                                                                                                                                                                                                                                                                                                                              
  1.225000E+03  1.250000E+02 -4.725000E+03 -1.014367E+08 -8.785806E+07 -1.111484E+08  1.922568E+01 -8.682555E+04 -4.787018E+01 -3.191696E-05  1.084168E-07 -1.499943E-05  4.474419E-09 -2.020703E-05 -8.297498E-09 -4.680798E-05  0.000000E+00  0.000000E+00  0.000000E+00  0.000000E+00  0.000000E+00  0.000000E+00  0.000000E+00                                                                                                                                                                                                                                                                                                                                                                                                                                                                                              
  1.475000E+03  1.250000E+02 -4.725000E+03 -1.013713E+08 -8.805552E+07 -1.115943E+08  5.213748E+00 -8.504051E+04 -7.458543E+01 -7.374279E-07  9.990684E-08 -2.183731E-05  1.213403E-09 -1.979159E-05 -1.292814E-08 -2.247484E-05  0.000000E+00  0.000000E+00  0.000000E+00  0.000000E+00  0.000000E+00  0.000000E+00  0.000000E+00                                                                                                                                                                                                                                                                                                                                                                                                                                                                                              
  1.725000E+03  1.250000E+02 -4.725000E+03 -1.013856E+08 -8.821220E+07 -1.118996E+08 -5.766223E+00 -3.710654E+04 -5.889441E+01  1.738972E-05  9.045749E-08 -2.458554E-05 -1.341981E-09 -8.635855E-06 -1.020836E-08 -7.105357E-06  0.000000E+00  0.000000E+00  0.000000E+00  0.000000E+00  0.000000E+00  0.000000E+00  0.000000E+00                                                                                                                                                                                                                                                                                                                                                                                                                                                                                              