Title="TREACTMECH V1.0-OMP-MPI stress-strain.tec: Total Stresses (Pa), Strains"                                                                                                                                                                                                                                                                                                                                                                                                                                                                                                                                                                                                                                                                                                                                                 
Variables= "X(m)"     "Y(m)"      "Z(m)"    "Sigma_xx"    "Sigma_yy"    "Sigma_zz"    "Sigma_yz"    "Sigma_xz"    "Sigma_xy"   "Strain_xx"   "Strain_yy"   "Strain_zz"   "Strain_yz"   "Strain_xz"   "Strain_xy"  "Vol_Strain"   "E_fail_xx"   "E_fail_yy"   "E_fail_zz"  "E_fail_yz2"  "E_fail_xz2"  "E_fail_xy2"  "E_fail_vol"                                                                                                                                                                                                                                                                                                                                                                                                                                                                                                
Zone T= "1.00000000E+07 sec" I=     9 J=    10 K=    23 F=Point
  1.250000E+02  1.250000E+02 -5.425000E+03 -1.139657E+08 -9.921477E+07 -1.259228E+08 -2.373602E+00  2.694890E+03  1.238110E+01  2.597546E-05  1.311615E-07 -3.210662E-05 -5.524115E-10  6.271853E-07  2.146057E-09 -5.999996E-06  0.000000E+00  0.000000E+00  0.000000E+00  0.000000E+00  0.000000E+00  0.000000E+00  0.000000E+00                                                                                                                                                                                                                                                                                                                                                                                                                                                                                              
  3.750000E+02  1.250000E+02 -5.425000E+03 -1.139850E+08 -9.913596E+07 -1.257548E+08 -8.489615E-01  9.389414E+03  3.604674E+01  1.475610E-05  1.348396E-07 -2.913892E-05 -1.975799E-10  2.185211E-06  6.248101E-09 -1.424798E-05  0.000000E+00  0.000000E+00  0.000000E+00  0.000000E+00  0.000000E+00  0.000000E+00  0.000000E+00                                                                                                                                                                                                                                                                                                                                                                                                                                                                                              
  6.250000E+02  1.250000E+02 -5.425000E+03 -1.140274E+08 -9.899574E+07 -1.254501E+08  1.992277E+00  1.531945E+04  4.075346E+01 -5.808874E-06  1.406613E-07 -2.317341E-05  4.636652E-10  3.565317E-06  7.063934E-09 -2.884162E-05  0.000000E+00  0.000000E+00  0.000000E+00  0.000000E+00  0.000000E+00  0.000000E+00  0.000000E+00                                                                                                                                                                                                                                                                                                                                                                                                                                                                                              
  8.750000E+02  1.250000E+02 -5.425000E+03 -1.140762E+08 -9.885076E+07 -1.251361E+08  4.838462E+00  1.115309E+04  2.318303E+01 -2.736307E-05  1.454916E-07 -1.686146E-05  1.126062E-09  2.595673E-06  4.018392E-09 -4.407904E-05  0.000000E+00  0.000000E+00  0.000000E+00  0.000000E+00  0.000000E+00  0.000000E+00  0.000000E+00                                                                                                                                                                                                                                                                                                                                                                                                                                                                                              
  1.050000E+03  1.250000E+02 -5.425000E+03 -1.140967E+08 -9.877442E+07 -1.249881E+08  5.954475E+00 -1.389935E-02  2.166511E-02 -3.779632E-05  1.472471E-07 -1.422300E-05  1.385793E-09 -3.234814E-12  3.755286E-12 -5.187207E-05  0.000000E+00  0.000000E+00  0.000000E+00  0.000000E+00  0.000000E+00  0.000000E+00  0.000000E+00                                                                                                                                                                                                                                                                                                                                                                                                                                                                                              
  1.225000E+03  1.250000E+02 -5.425000E+03 -1.140762E+08 -9.885076E+07 -1.251361E+08  4.793422E+00 -1.115296E+04 -2.306456E+01 -2.736314E-05  1.455359E-07 -1.686140E-05  1.115579E-09 -2.595644E-06 -3.997858E-09 -4.407900E-05  0.000000E+00  0.000000E+00  0.000000E+00  0.000000E+00  0.000000E+00  0.000000E+00  0.000000E+00                                                                                                                                                                                                                                                                                                                                                                                                                                                                                              
  1.475000E+03  1.250000E+02 -5.425000E+03 -1.140274E+08 -9.899574E+07 -1.254501E+08  1.931365E+00 -1.531933E+04 -4.072149E+01 -5.809041E-06  1.407467E-07 -2.317330E-05  4.494891E-10 -3.565288E-06 -7.058391E-09 -2.884159E-05  0.000000E+00  0.000000E+00  0.000000E+00  0.000000E+00  0.000000E+00  0.000000E+00  0.000000E+00                                                                                                                                                                                                                                                                                                                                                                                                                                                                                              
  1.725000E+03  1.250000E+02 -5.425000E+03 -1.139850E+08 -9.913596E+07 -1.257548E+08 -8.813811E-01 -9.389299E+03 -3.601022E+01  1.475588E-05  1.349403E-07 -2.913881E-05 -2.051250E-10 -2.185184E-06 -6.241772E-09 -1.424799E-05  0.000000E+00  0.000000E+00  0.000000E+00  0.000000E+00  0.000000E+00  0.000000E+00  0.000000E+00                                                                                                                                                                                                                                                                                                                                                                                                                                                                                              
  1.975000E+03  1.250000E+02 -5.425000E+03 -1.139657E+08 -9.921477E+07 -1.259228E+08 -2.386255E+00 -2.694844E+03 -1.236806E+01  2.597521E-05  1.312719E-07 -3.210651E-05 -5.553564E-10 -6.271747E-07 -2.143797E-09 -6.000029E-06  0.000000E+00  0.000000E+00  0.000000E+00  0.000000E+00  0.000000E+00  0.000000E+00  0.000000E+00                                                                                                                                                                                                                                                                                                                                                                                                                                                                                              
  1.250000E+02  1.250000E+02 -5.225000E+03 -1.103793E+08 -9.610593E+07 -1.219660E+08 -6.114064E+00  8.765897E+03  1.463433E+01  2.680210E-05  1.232967E-07 -2.959856E-05 -1.422934E-09  2.040099E-06  2.536617E-09 -2.673169E-06  0.000000E+00  0.000000E+00  0.000000E+00  0.000000E+00  0.000000E+00  0.000000E+00  0.000000E+00                                                                                                                                                                                                                                                                                                                                                                                                                                                                                              
  3.750000E+02  1.250000E+02 -5.225000E+03 -1.103926E+08 -9.602511E+07 -1.218023E+08 -1.157218E+00  2.877995E+04  4.198913E+01  1.582965E-05  1.275897E-07 -2.735610E-05 -2.693209E-10  6.697996E-06  7.278116E-09 -1.139886E-05  0.000000E+00  0.000000E+00  0.000000E+00  0.000000E+00  0.000000E+00  0.000000E+00  0.000000E+00                                                                                                                                                                                                                                                                                                                                                                                                                                                                                              
  6.250000E+02  1.250000E+02 -5.225000E+03 -1.104203E+08 -9.586896E+07 -1.214888E+08  7.782541E+00  4.557958E+04  4.861644E+01 -5.350230E-06  1.344360E-07 -2.289205E-05  1.811241E-09  1.060780E-05  8.426850E-09 -2.810784E-05  0.000000E+00  0.000000E+00  0.000000E+00  0.000000E+00  0.000000E+00  0.000000E+00  0.000000E+00                                                                                                                                                                                                                                                                                                                                                                                                                                                                                              
  8.750000E+02  1.250000E+02 -5.225000E+03 -1.104546E+08 -9.569441E+07 -1.211445E+08  1.659236E+01  3.277792E+04  2.800288E+01 -2.908491E-05  1.401944E-07 -1.806070E-05  3.861563E-09  7.628448E-06  4.853832E-09 -4.700542E-05  0.000000E+00  0.000000E+00  0.000000E+00  0.000000E+00  0.000000E+00  0.000000E+00  0.000000E+00                                                                                                                                                                                                                                                                                                                                                                                                                                                                                              
  1.050000E+03  1.250000E+02 -5.225000E+03 -1.104685E+08 -9.560021E+07 -1.209755E+08  2.011862E+01 -1.490904E-01  2.771247E-02 -4.098145E-05  1.422968E-07 -1.598666E-05  4.682234E-09 -3.469802E-11  4.803495E-12 -5.682581E-05  0.000000E+00  0.000000E+00  0.000000E+00  0.000000E+00  0.000000E+00  0.000000E+00  0.000000E+00                                                                                                                                                                                                                                                                                                                                                                                                                                                                                              
  1.225000E+03  1.250000E+02 -5.225000E+03 -1.104546E+08 -9.569441E+07 -1.211445E+08  1.653000E+01 -3.277814E+04 -2.788736E+01 -2.908496E-05  1.402306E-07 -1.806068E-05  3.847049E-09 -7.628500E-06 -4.833809E-09 -4.700541E-05  0.000000E+00  0.000000E+00  0.000000E+00  0.000000E+00  0.000000E+00  0.000000E+00  0.000000E+00                                                                                                                                                                                                                                                                                                                                                                                                                                                                                              
  1.475000E+03  1.250000E+02 -5.225000E+03 -1.104203E+08 -9.586896E+07 -1.214888E+08  7.688745E+00 -4.557997E+04 -4.858809E+01 -5.350377E-06  1.345088E-07 -2.289199E-05  1.789412E-09 -1.060789E-05 -8.421936E-09 -2.810786E-05  0.000000E+00  0.000000E+00  0.000000E+00  0.000000E+00  0.000000E+00  0.000000E+00  0.000000E+00                                                                                                                                                                                                                                                                                                                                                                                                                                                                                              
  1.725000E+03  1.250000E+02 -5.225000E+03 -1.103926E+08 -9.602511E+07 -1.218023E+08 -1.233585E+00 -2.878021E+04 -4.196744E+01  1.582945E-05  1.276798E-07 -2.735603E-05 -2.870938E-10 -6.698057E-06 -7.274357E-09 -1.139890E-05  0.000000E+00  0.000000E+00  0.000000E+00  0.000000E+00  0.000000E+00  0.000000E+00  0.000000E+00                                                                                                                                                                                                                                                                                                                                                                                                                                                                                              
  1.975000E+03  1.250000E+02 -5.225000E+03 -1.103793E+08 -9.610593E+07 -1.219660E+08 -6.174373E+00 -8.765994E+03 -1.463084E+01  2.680186E-05  1.233977E-07 -2.959848E-05 -1.436970E-09 -2.040121E-06 -2.536012E-09 -2.673218E-06  0.000000E+00  0.000000E+00  0.000000E+00  0.000000E+00  0.000000E+00  0.000000E+00  0.000000E+00                                                                                                                                                                                                                                                                                                                                                                                                                                                                                              
  1.250000E+02  1.250000E+02 -4.975000E+03 -1.058849E+08 -9.221817E+07 -1.170247E+08 -8.845661E+00  1.380205E+04  1.916809E+01  2.842931E-05  1.055072E-07 -2.743616E-05 -2.058662E-09  3.212170E-06  3.322469E-09  1.098659E-06  0.000000E+00  0.000000E+00  0.000000E+00  0.000000E+00  0.000000E+00  0.000000E+00  0.000000E+00                                                                                                                                                                                                                                                                                                                                                                                                                                                                                              
  3.750000E+02  1.250000E+02 -4.975000E+03 -1.058919E+08 -9.213746E+07 -1.168677E+08 -1.532057E+00  4.582556E+04  5.399138E+01  1.802475E-05  1.109939E-07 -2.574745E-05 -3.565578E-10  1.066504E-05  9.358505E-09 -7.611706E-06  0.000000E+00  0.000000E+00  0.000000E+00  0.000000E+00  0.000000E+00  0.000000E+00  0.000000E+00                                                                                                                                                                                                                                                                                                                                                                                                                                                                                              
  6.250000E+02  1.250000E+02 -4.975000E+03 -1.059123E+08 -9.196658E+07 -1.165391E+08  1.204558E+01  7.602522E+04  6.418828E+01 -4.230999E-06  1.198144E-07 -2.200593E-05  2.803384E-09  1.769345E-05  1.112597E-08 -2.611712E-05  0.000000E+00  0.000000E+00  0.000000E+00  0.000000E+00  0.000000E+00  0.000000E+00  0.000000E+00                                                                                                                                                                                                                                                                                                                                                                                                                                                                                              
  8.750000E+02  1.250000E+02 -4.975000E+03 -1.059441E+08 -9.174984E+07 -1.161286E+08  2.611884E+01  5.903030E+04  3.783105E+01 -3.257702E-05  1.273892E-07 -1.713558E-05  6.078672E-09  1.373820E-05  6.557381E-09 -4.958521E-05  0.000000E+00  0.000000E+00  0.000000E+00  0.000000E+00  0.000000E+00  0.000000E+00  0.000000E+00                                                                                                                                                                                                                                                                                                                                                                                                                                                                                              
  1.050000E+03  1.250000E+02 -4.975000E+03 -1.059669E+08 -9.162977E+07 -1.159146E+08  3.205505E+01 -1.320386E-01  2.563969E-02 -4.822897E-05  1.301930E-07 -1.471431E-05  7.460215E-09 -3.072951E-11  4.444213E-12 -6.281308E-05  0.000000E+00  0.000000E+00  0.000000E+00  0.000000E+00  0.000000E+00  0.000000E+00  0.000000E+00                                                                                                                                                                                                                                                                                                                                                                                                                                                                                              
  1.225000E+03  1.250000E+02 -4.975000E+03 -1.059441E+08 -9.174984E+07 -1.161286E+08  2.606661E+01 -5.903050E+04 -3.773907E+01 -3.257706E-05  1.274167E-07 -1.713557E-05  6.066518E-09 -1.373825E-05 -6.541439E-09 -4.958521E-05  0.000000E+00  0.000000E+00  0.000000E+00  0.000000E+00  0.000000E+00  0.000000E+00  0.000000E+00                                                                                                                                                                                                                                                                                                                                                                                                                                                                                              
  1.475000E+03  1.250000E+02 -4.975000E+03 -1.059123E+08 -9.196658E+07 -1.165391E+08  1.195983E+01 -7.602558E+04 -6.417179E+01 -4.231112E-06  1.198715E-07 -2.200590E-05  2.783427E-09 -1.769353E-05 -1.112311E-08 -2.611714E-05  0.000000E+00  0.000000E+00  0.000000E+00  0.000000E+00  0.000000E+00  0.000000E+00  0.000000E+00                                                                                                                                                                                                                                                                                                                                                                                                                                                                                              
  1.725000E+03  1.250000E+02 -4.975000E+03 -1.058919E+08 -9.213746E+07 -1.168677E+08 -1.613518E+00 -4.582582E+04 -5.398279E+01  1.802459E-05  1.110660E-07 -2.574740E-05 -3.755162E-10 -1.066511E-05 -9.357016E-09 -7.611744E-06  0.000000E+00  0.000000E+00  0.000000E+00  0.000000E+00  0.000000E+00  0.000000E+00  0.000000E+00                                                                                                                                                                                                                                                                                                                                                                                                                                                                                              
  1.975000E+03  1.250000E+02 -4.975000E+03 -1.058849E+08 -9.221817E+07 -1.170247E+08 -8.921107E+00 -1.380215E+04 -1.916689E+01  2.842913E-05  1.055887E-07 -2.743611E-05 -2.076221E-09 -3.212194E-06 -3.322261E-09  1.098615E-06  0.000000E+00  0.000000E+00  0.000000E+00  0.000000E+00  0.000000E+00  0.000000E+00  0.000000E+00                                                                                                                                                                                                                                                                                                                                                                                                                                                                                              
  1.250000E+02  1.250000E+02 -4.725000E+03 -1.014312E+08 -8.836371E+07 -1.120785E+08 -6.672657E+00  1.090564E+04  2.194605E+01  2.928460E-05  8.047939E-08 -2.219011E-05 -1.552936E-09  2.538085E-06  3.803981E-09  7.174969E-06  0.000000E+00  0.000000E+00  0.000000E+00  0.000000E+00  0.000000E+00  0.000000E+00  0.000000E+00                                                                                                                                                                                                                                                                                                                                                                                                                                                                                              
  3.750000E+02  1.250000E+02 -4.725000E+03 -1.014104E+08 -8.827120E+07 -1.119346E+08 -3.185931E+00  4.001650E+04  6.212917E+01  2.034405E-05  8.657888E-08 -2.250534E-05 -7.414659E-10  9.313093E-06  1.076906E-08 -2.074706E-06  0.000000E+00  0.000000E+00  0.000000E+00  0.000000E+00  0.000000E+00  0.000000E+00  0.000000E+00                                                                                                                                                                                                                                                                                                                                                                                                                                                                                              
  6.250000E+02  1.250000E+02 -4.725000E+03 -1.013769E+08 -8.806505E+07 -1.115995E+08  5.847335E+00  9.009030E+04  7.639196E+01 -4.060311E-07  9.643754E-08 -2.146895E-05  1.360858E-09  2.096683E-05  1.324127E-08 -2.177854E-05  0.000000E+00  0.000000E+00  0.000000E+00  0.000000E+00  0.000000E+00  0.000000E+00  0.000000E+00                                                                                                                                                                                                                                                                                                                                                                                                                                                                                              
  8.750000E+02  1.250000E+02 -4.725000E+03 -1.014130E+08 -8.777125E+07 -1.110830E+08  1.788703E+01  8.874316E+04  4.672260E+01 -3.739084E-05  1.049984E-07 -1.686172E-05  4.162872E-09  2.065331E-05  8.098583E-09 -5.414757E-05  0.000000E+00  0.000000E+00  0.000000E+00  0.000000E+00  0.000000E+00  0.000000E+00  0.000000E+00                                                                                                                                                                                                                                                                                                                                                                                                                                                                                              
  1.050000E+03  1.250000E+02 -4.725000E+03 -1.014244E+08 -8.758534E+07 -1.107645E+08  2.381692E+01 -9.296137E-02  1.031677E-02 -5.915803E-05  1.082007E-07 -1.354775E-05  5.542944E-09 -2.163502E-11  1.788241E-12 -7.259758E-05  0.000000E+00  0.000000E+00  0.000000E+00  0.000000E+00  0.000000E+00  0.000000E+00  0.000000E+00                                                                                                                                                                                                                                                                                                                                                                                                                                                                                              
  1.225000E+03  1.250000E+02 -4.725000E+03 -1.014130E+08 -8.777125E+07 -1.110830E+08  1.784859E+01 -8.874332E+04 -4.667640E+01 -3.739088E-05  1.050175E-07 -1.686172E-05  4.153927E-09 -2.065335E-05 -8.090576E-09 -5.414757E-05  0.000000E+00  0.000000E+00  0.000000E+00  0.000000E+00  0.000000E+00  0.000000E+00  0.000000E+00                                                                                                                                                                                                                                                                                                                                                                                                                                                                                              
  1.475000E+03  1.250000E+02 -4.725000E+03 -1.013769E+08 -8.806505E+07 -1.115995E+08  5.778756E+00 -9.009055E+04 -7.638906E+01 -4.061103E-07  9.647806E-08 -2.146893E-05  1.344898E-09 -2.096689E-05 -1.324077E-08 -2.177856E-05  0.000000E+00  0.000000E+00  0.000000E+00  0.000000E+00  0.000000E+00  0.000000E+00  0.000000E+00                                                                                                                                                                                                                                                                                                                                                                                                                                                                                              
  1.725000E+03  1.250000E+02 -4.725000E+03 -1.014104E+08 -8.827120E+07 -1.119346E+08 -3.259625E+00 -4.001669E+04 -6.212769E+01  2.034395E-05  8.663120E-08 -2.250532E-05 -7.586169E-10 -9.313137E-06 -1.076880E-08 -2.074738E-06  0.000000E+00  0.000000E+00  0.000000E+00  0.000000E+00  0.000000E+00  0.000000E+00  0.000000E+00                                                                                                                                                                                                                                                                                                                                                                                                                                                                                              