Title="TREACTMECH V1.0-OMP-MPI stress-strain.tec: Total Stresses (Pa), Strains"                                                                                                                                                                                                                                                                                                                                                                                                                                                                                                                                                                                                                                                                                                                                                 
Variables= "X(m)"     "Y(m)"      "Z(m)"    "Sigma_xx"    "Sigma_yy"    "Sigma_zz"    "Sigma_yz"    "Sigma_xz"    "Sigma_xy"   "Strain_xx"   "Strain_yy"   "Strain_zz"   "Strain_yz"   "Strain_xz"   "Strain_xy"  "Vol_Strain"   "E_fail_xx"   "E_fail_yy"   "E_fail_zz"  "E_fail_yz2"  "E_fail_xz2"  "E_fail_xy2"  "E_fail_vol"                                                                                                                                                                                                                                                                                                                                                                                                                                                                                                
Zone T= "3.15569000E+08 sec" I=     9 J=    10 K=    23 F=Point
  1.250000E+02  1.250000E+02 -5.425000E+03 -1.139185E+08 -9.923395E+07 -1.259891E+08 -4.039560E-02  2.606440E+03  6.032151E+00  3.174640E-05  1.448967E-07 -3.617648E-05 -9.401321E-12  6.066003E-07  1.045573E-09 -4.285183E-06  0.000000E+00  0.000000E+00  0.000000E+00  0.000000E+00  0.000000E+00  0.000000E+00  0.000000E+00                                                                                                                                                                                                                                                                                                                                                                                                                                                                                              
  3.750000E+02  1.250000E+02 -5.425000E+03 -1.139373E+08 -9.912279E+07 -1.257893E+08  6.389690E-01  9.293975E+03  2.038891E+01  1.776203E-05  1.466549E-07 -3.326212E-05  1.487081E-10  2.162999E-06  3.534077E-09 -1.535343E-05  0.000000E+00  0.000000E+00  0.000000E+00  0.000000E+00  0.000000E+00  0.000000E+00  0.000000E+00                                                                                                                                                                                                                                                                                                                                                                                                                                                                                              
  6.250000E+02  1.250000E+02 -5.425000E+03 -1.139797E+08 -9.892922E+07 -1.254316E+08  2.220806E+00  1.541838E+04  2.414322E+01 -7.426845E-06  1.496618E-07 -2.732919E-05  5.168511E-10  3.588341E-06  4.184826E-09 -3.460638E-05  0.000000E+00  0.000000E+00  0.000000E+00  0.000000E+00  0.000000E+00  0.000000E+00  0.000000E+00                                                                                                                                                                                                                                                                                                                                                                                                                                                                                              
  8.750000E+02  1.250000E+02 -5.425000E+03 -1.140290E+08 -9.873573E+07 -1.250690E+08  4.093307E+00  1.126904E+04  1.446346E+01 -3.323236E-05  1.522746E-07 -2.100860E-05  9.526407E-10  2.622659E-06  2.506999E-09 -5.408869E-05  0.000000E+00  0.000000E+00  0.000000E+00  0.000000E+00  0.000000E+00  0.000000E+00  0.000000E+00                                                                                                                                                                                                                                                                                                                                                                                                                                                                                              
  1.050000E+03  1.250000E+02 -5.425000E+03 -1.140496E+08 -9.865286E+07 -1.249143E+08  4.896821E+00 -8.165142E-04  1.103675E-02 -4.424624E-05  1.532563E-07 -1.836110E-05  1.139644E-09 -1.900284E-13  1.913037E-12 -6.245408E-05  0.000000E+00  0.000000E+00  0.000000E+00  0.000000E+00  0.000000E+00  0.000000E+00  0.000000E+00                                                                                                                                                                                                                                                                                                                                                                                                                                                                                              
  1.225000E+03  1.250000E+02 -5.425000E+03 -1.140290E+08 -9.873573E+07 -1.250690E+08  4.083344E+00 -1.126903E+04 -1.444972E+01 -3.323235E-05  1.522800E-07 -2.100860E-05  9.503222E-10 -2.622657E-06 -2.504619E-09 -5.408867E-05  0.000000E+00  0.000000E+00  0.000000E+00  0.000000E+00  0.000000E+00  0.000000E+00  0.000000E+00                                                                                                                                                                                                                                                                                                                                                                                                                                                                                              
  1.475000E+03  1.250000E+02 -5.425000E+03 -1.139797E+08 -9.892922E+07 -1.254316E+08  2.206476E+00 -1.541837E+04 -2.413845E+01 -7.426836E-06  1.496709E-07 -2.732919E-05  5.135162E-10 -3.588338E-06 -4.183998E-09 -3.460635E-05  0.000000E+00  0.000000E+00  0.000000E+00  0.000000E+00  0.000000E+00  0.000000E+00  0.000000E+00                                                                                                                                                                                                                                                                                                                                                                                                                                                                                              
  1.725000E+03  1.250000E+02 -5.425000E+03 -1.139373E+08 -9.912279E+07 -1.257893E+08  6.290326E-01 -9.293962E+03 -2.038737E+01  1.776204E-05  1.466644E-07 -3.326211E-05  1.463956E-10 -2.162996E-06 -3.533810E-09 -1.535341E-05  0.000000E+00  0.000000E+00  0.000000E+00  0.000000E+00  0.000000E+00  0.000000E+00  0.000000E+00                                                                                                                                                                                                                                                                                                                                                                                                                                                                                              
  1.975000E+03  1.250000E+02 -5.425000E+03 -1.139185E+08 -9.923395E+07 -1.259891E+08 -4.643480E-02 -2.606434E+03 -6.032938E+00  3.174641E-05  1.449061E-07 -3.617648E-05 -1.080683E-11 -6.065989E-07 -1.045709E-09 -4.285170E-06  0.000000E+00  0.000000E+00  0.000000E+00  0.000000E+00  0.000000E+00  0.000000E+00  0.000000E+00                                                                                                                                                                                                                                                                                                                                                                                                                                                                                              
  1.250000E+02  1.250000E+02 -5.225000E+03 -1.103342E+08 -9.612613E+07 -1.220318E+08  1.574960E+00  7.999084E+03  7.043088E+00  3.247458E-05  1.379711E-07 -3.353741E-05  3.665425E-10  1.861638E-06  1.220802E-09 -9.248546E-07  0.000000E+00  0.000000E+00  0.000000E+00  0.000000E+00  0.000000E+00  0.000000E+00  0.000000E+00                                                                                                                                                                                                                                                                                                                                                                                                                                                                                              
  3.750000E+02  1.250000E+02 -5.225000E+03 -1.103449E+08 -9.601193E+07 -1.218371E+08  3.742699E+00  2.712412E+04  2.325349E+01  1.882949E-05  1.399835E-07 -3.149980E-05  8.710434E-10  6.312633E-06  4.030604E-09 -1.253032E-05  0.000000E+00  0.000000E+00  0.000000E+00  0.000000E+00  0.000000E+00  0.000000E+00  0.000000E+00                                                                                                                                                                                                                                                                                                                                                                                                                                                                                              
  6.250000E+02  1.250000E+02 -5.225000E+03 -1.103691E+08 -9.579976E+07 -1.214708E+08  8.519628E+00  4.431812E+04  2.864373E+01 -6.897004E-06  1.434792E-07 -2.732245E-05  1.982784E-09  1.031422E-05  4.964914E-09 -3.407597E-05  0.000000E+00  0.000000E+00  0.000000E+00  0.000000E+00  0.000000E+00  0.000000E+00  0.000000E+00                                                                                                                                                                                                                                                                                                                                                                                                                                                                                              
  8.750000E+02  1.250000E+02 -5.225000E+03 -1.104011E+08 -9.557342E+07 -1.210772E+08  1.403303E+01  3.225705E+04  1.751887E+01 -3.493424E-05  1.465983E-07 -2.270473E-05  3.265927E-09  7.507225E-06  3.036603E-09 -5.749238E-05  0.000000E+00  0.000000E+00  0.000000E+00  0.000000E+00  0.000000E+00  0.000000E+00  0.000000E+00                                                                                                                                                                                                                                                                                                                                                                                                                                                                                              
  1.050000E+03  1.250000E+02 -5.225000E+03 -1.104141E+08 -9.547204E+07 -1.209018E+08  1.644805E+01  2.870927E-02  1.287328E-02 -4.736424E-05  1.477855E-07 -2.070310E-05  3.827978E-09  6.681547E-12  2.231369E-12 -6.791956E-05  0.000000E+00  0.000000E+00  0.000000E+00  0.000000E+00  0.000000E+00  0.000000E+00  0.000000E+00                                                                                                                                                                                                                                                                                                                                                                                                                                                                                              
  1.225000E+03  1.250000E+02 -5.225000E+03 -1.104011E+08 -9.557342E+07 -1.210772E+08  1.401698E+01 -3.225702E+04 -1.750386E+01 -3.493423E-05  1.466025E-07 -2.270473E-05  3.262192E-09 -7.507218E-06 -3.034003E-09 -5.749236E-05  0.000000E+00  0.000000E+00  0.000000E+00  0.000000E+00  0.000000E+00  0.000000E+00  0.000000E+00                                                                                                                                                                                                                                                                                                                                                                                                                                                                                              
  1.475000E+03  1.250000E+02 -5.225000E+03 -1.103691E+08 -9.579976E+07 -1.214708E+08  8.496468E+00 -4.431814E+04 -2.864174E+01 -6.896995E-06  1.434865E-07 -2.732245E-05  1.977394E-09 -1.031422E-05 -4.964568E-09 -3.407596E-05  0.000000E+00  0.000000E+00  0.000000E+00  0.000000E+00  0.000000E+00  0.000000E+00  0.000000E+00                                                                                                                                                                                                                                                                                                                                                                                                                                                                                              
  1.725000E+03  1.250000E+02 -5.225000E+03 -1.103449E+08 -9.601193E+07 -1.218371E+08  3.724768E+00 -2.712414E+04 -2.325593E+01  1.882950E-05  1.399918E-07 -3.149980E-05  8.668702E-10 -6.312637E-06 -4.031027E-09 -1.253031E-05  0.000000E+00  0.000000E+00  0.000000E+00  0.000000E+00  0.000000E+00  0.000000E+00  0.000000E+00                                                                                                                                                                                                                                                                                                                                                                                                                                                                                              
  1.975000E+03  1.250000E+02 -5.225000E+03 -1.103342E+08 -9.612613E+07 -1.220318E+08  1.562241E+00 -7.999091E+03 -7.045264E+00  3.247459E-05  1.379797E-07 -3.353742E-05  3.635825E-10 -1.861639E-06 -1.221179E-09 -9.248479E-07  0.000000E+00  0.000000E+00  0.000000E+00  0.000000E+00  0.000000E+00  0.000000E+00  0.000000E+00                                                                                                                                                                                                                                                                                                                                                                                                                                                                                              
  1.250000E+02  1.250000E+02 -4.975000E+03 -1.058400E+08 -9.223260E+07 -1.170873E+08  2.773491E-01  1.092874E+04  9.307547E+00  3.359172E-05  1.217344E-07 -3.159517E-05  6.454782E-11  2.543460E-06  1.613308E-09  2.118284E-06  0.000000E+00  0.000000E+00  0.000000E+00  0.000000E+00  0.000000E+00  0.000000E+00  0.000000E+00                                                                                                                                                                                                                                                                                                                                                                                                                                                                                              
  3.750000E+02  1.250000E+02 -4.975000E+03 -1.058407E+08 -9.211837E+07 -1.169015E+08  4.202284E+00  3.871795E+04  2.965995E+01  2.082047E-05  1.242911E-07 -3.031628E-05  9.780031E-10  9.010880E-06  5.141058E-09 -9.371511E-06  0.000000E+00  0.000000E+00  0.000000E+00  0.000000E+00  0.000000E+00  0.000000E+00  0.000000E+00                                                                                                                                                                                                                                                                                                                                                                                                                                                                                              
  6.250000E+02  1.250000E+02 -4.975000E+03 -1.058508E+08 -9.188924E+07 -1.165230E+08  1.267674E+01  6.830778E+04  3.812421E+01 -5.590234E-06  1.287957E-07 -2.730051E-05  2.950274E-09  1.589736E-05  6.608197E-09 -3.276195E-05  0.000000E+00  0.000000E+00  0.000000E+00  0.000000E+00  0.000000E+00  0.000000E+00  0.000000E+00                                                                                                                                                                                                                                                                                                                                                                                                                                                                                              
  8.750000E+02  1.250000E+02 -4.975000E+03 -1.058721E+08 -9.161527E+07 -1.160629E+08  2.271007E+01  5.497115E+04  2.416896E+01 -3.799368E-05  1.329696E-07 -2.310409E-05  5.285344E-09  1.279351E-05  4.189287E-09 -6.096481E-05  0.000000E+00  0.000000E+00  0.000000E+00  0.000000E+00  0.000000E+00  0.000000E+00  0.000000E+00                                                                                                                                                                                                                                                                                                                                                                                                                                                                                              
  1.050000E+03  1.250000E+02 -4.975000E+03 -1.058932E+08 -9.148783E+07 -1.158444E+08  2.729357E+01  2.491097E-02  7.983033E-03 -5.414145E-05  1.346008E-07 -2.093259E-05  6.352069E-09  5.797564E-12  1.383726E-12 -7.493943E-05  0.000000E+00  0.000000E+00  0.000000E+00  0.000000E+00  0.000000E+00  0.000000E+00  0.000000E+00                                                                                                                                                                                                                                                                                                                                                                                                                                                                                              
  1.225000E+03  1.250000E+02 -4.975000E+03 -1.058721E+08 -9.161527E+07 -1.160629E+08  2.269831E+01 -5.497113E+04 -2.416096E+01 -3.799368E-05  1.329725E-07 -2.310410E-05  5.282607E-09 -1.279350E-05 -4.187900E-09 -6.096480E-05  0.000000E+00  0.000000E+00  0.000000E+00  0.000000E+00  0.000000E+00  0.000000E+00  0.000000E+00                                                                                                                                                                                                                                                                                                                                                                                                                                                                                              
  1.475000E+03  1.250000E+02 -4.975000E+03 -1.058508E+08 -9.188924E+07 -1.165230E+08  1.265959E+01 -6.830779E+04 -3.812567E+01 -5.590227E-06  1.288011E-07 -2.730052E-05  2.946283E-09 -1.589736E-05 -6.608450E-09 -3.276194E-05  0.000000E+00  0.000000E+00  0.000000E+00  0.000000E+00  0.000000E+00  0.000000E+00  0.000000E+00                                                                                                                                                                                                                                                                                                                                                                                                                                                                                              
  1.725000E+03  1.250000E+02 -4.975000E+03 -1.058407E+08 -9.211837E+07 -1.169015E+08  4.189006E+00 -3.871797E+04 -2.966365E+01  2.082048E-05  1.242978E-07 -3.031628E-05  9.749130E-10 -9.010885E-06 -5.141700E-09 -9.371507E-06  0.000000E+00  0.000000E+00  0.000000E+00  0.000000E+00  0.000000E+00  0.000000E+00  0.000000E+00                                                                                                                                                                                                                                                                                                                                                                                                                                                                                              
  1.975000E+03  1.250000E+02 -4.975000E+03 -1.058400E+08 -9.223260E+07 -1.170873E+08  2.676595E-01 -1.092875E+04 -9.309325E+00  3.359173E-05  1.217418E-07 -3.159518E-05  6.229276E-11 -2.543462E-06 -1.613616E-09  2.118288E-06  0.000000E+00  0.000000E+00  0.000000E+00  0.000000E+00  0.000000E+00  0.000000E+00  0.000000E+00                                                                                                                                                                                                                                                                                                                                                                                                                                                                                              
  1.250000E+02  1.250000E+02 -4.725000E+03 -1.013592E+08 -8.833730E+07 -1.121322E+08 -7.945952E+00  6.373758E+03  1.187057E+01  3.325591E-05  9.652825E-08 -2.911409E-05 -1.849272E-09  1.483373E-06  2.057566E-09  4.238341E-06  0.000000E+00  0.000000E+00  0.000000E+00  0.000000E+00  0.000000E+00  0.000000E+00  0.000000E+00                                                                                                                                                                                                                                                                                                                                                                                                                                                                                              
  3.750000E+02  1.250000E+02 -4.725000E+03 -1.013372E+08 -8.822311E+07 -1.119636E+08 -3.150400E+00  2.832356E+04  3.721079E+01  2.253414E-05  9.966336E-08 -2.917244E-05 -7.331968E-10  6.591781E-06  6.449870E-09 -6.538645E-06  0.000000E+00  0.000000E+00  0.000000E+00  0.000000E+00  0.000000E+00  0.000000E+00  0.000000E+00                                                                                                                                                                                                                                                                                                                                                                                                                                                                                              
  6.250000E+02  1.250000E+02 -4.725000E+03 -1.013010E+08 -8.797759E+07 -1.115850E+08  7.587201E+00  7.683486E+04  4.966267E+01 -1.395222E-06  1.051608E-07 -2.777899E-05  1.765779E-09  1.788188E-05  8.608197E-09 -2.906905E-05  0.000000E+00  0.000000E+00  0.000000E+00  0.000000E+00  0.000000E+00  0.000000E+00  0.000000E+00                                                                                                                                                                                                                                                                                                                                                                                                                                                                                              
  8.750000E+02  1.250000E+02 -4.725000E+03 -1.013366E+08 -8.764576E+07 -1.110279E+08  2.111670E+01  8.134420E+04  3.290794E+01 -4.163663E-05  1.103276E-07 -2.295790E-05  4.914517E-09  1.893134E-05  5.704043E-09 -6.448420E-05  0.000000E+00  0.000000E+00  0.000000E+00  0.000000E+00  0.000000E+00  0.000000E+00  0.000000E+00                                                                                                                                                                                                                                                                                                                                                                                                                                                                                              
  1.050000E+03  1.250000E+02 -4.725000E+03 -1.013458E+08 -8.745324E+07 -1.107024E+08  2.772503E+01  1.139029E-02  2.268041E-03 -6.379100E-05  1.123854E-07 -1.961086E-05  6.452483E-09  2.650878E-12  3.931272E-13 -8.328947E-05  0.000000E+00  0.000000E+00  0.000000E+00  0.000000E+00  0.000000E+00  0.000000E+00  0.000000E+00                                                                                                                                                                                                                                                                                                                                                                                                                                                                                              
  1.225000E+03  1.250000E+02 -4.725000E+03 -1.013366E+08 -8.764576E+07 -1.110279E+08  2.111138E+01 -8.134420E+04 -3.290750E+01 -4.163663E-05  1.103297E-07 -2.295790E-05  4.913279E-09 -1.893134E-05 -5.703967E-09 -6.448420E-05  0.000000E+00  0.000000E+00  0.000000E+00  0.000000E+00  0.000000E+00  0.000000E+00  0.000000E+00                                                                                                                                                                                                                                                                                                                                                                                                                                                                                              
  1.475000E+03  1.250000E+02 -4.725000E+03 -1.013010E+08 -8.797759E+07 -1.115850E+08  7.579492E+00 -7.683487E+04 -4.966489E+01 -1.395217E-06  1.051652E-07 -2.777900E-05  1.763985E-09 -1.788188E-05 -8.608581E-09 -2.906905E-05  0.000000E+00  0.000000E+00  0.000000E+00  0.000000E+00  0.000000E+00  0.000000E+00  0.000000E+00                                                                                                                                                                                                                                                                                                                                                                                                                                                                                              
  1.725000E+03  1.250000E+02 -4.725000E+03 -1.013372E+08 -8.822311E+07 -1.119636E+08 -3.156411E+00 -2.832358E+04 -3.721310E+01  2.253414E-05  9.966929E-08 -2.917245E-05 -7.345958E-10 -6.591785E-06 -6.450271E-09 -6.538642E-06  0.000000E+00  0.000000E+00  0.000000E+00  0.000000E+00  0.000000E+00  0.000000E+00  0.000000E+00                                                                                                                                                                                                                                                                                                                                                                                                                                                                                              