Title="TOUGHREACT V3.30-OMP: Aqueous Total & Species Concentrations in mol/kg h2o, Surface & Exchanged Species in mol/kg h2o, Dry blocks in mol/L medium"                                                                                                                                                                                                                                                                                                                                                                                                                                                                                                                                                                                                                                                                       
Variables= "X(m)"   "Y(m)"   "Z(m)"   "P(bar)"     "T(C)"   "SatGas"   "SatLiq"     "aH2O"       "pH"        "t_na+"        "t_cl-"      "t_hco3-"       "t_ca+2"      "t_so4-2"       "t_mg+2"       "t_ba+2"       "t_al+3"     "t_h4sio4"                                                                                                                                                                                                                                                                                                                                                                                                                                                                                                                                                                                    
Zone T= "1.58443954E-09 yr" I=      5J=      5K=     10F=Point 
       0.5000       0.5000      -9.5000  6.34630E+00   89.500  0.00000E+00  1.00000E+00  1.00074 10.4992  1.0006E-10  1.0006E-10  8.8179E-06  1.7189E-02  6.3165E-05  1.7189E-02  6.3165E-05  9.5558E-04  3.0105E-02                                                                                                                                                                                                                                                                                                                                                                                                                                                                                                                                                                                                            
       1.5000       0.5000      -9.5000  6.34295E+00   89.500  0.00000E+00  1.00000E+00  1.00074 10.4992  1.0006E-10  1.0006E-10  8.8178E-06  1.7189E-02  6.3165E-05  1.7189E-02  6.3165E-05  9.5557E-04  3.0104E-02                                                                                                                                                                                                                                                                                                                                                                                                                                                                                                                                                                                                            
       2.5000       0.5000      -9.5000  6.33562E+00   89.500  0.00000E+00  1.00000E+00  1.00074 10.4992  1.0006E-10  1.0006E-10  8.8177E-06  1.7188E-02  6.3164E-05  1.7188E-02  6.3164E-05  9.5555E-04  3.0104E-02                                                                                                                                                                                                                                                                                                                                                                                                                                                                                                                                                                                                            
       3.5000       0.5000      -9.5000  6.34295E+00   89.500  0.00000E+00  1.00000E+00  1.00074 10.4992  1.0006E-10  1.0006E-10  8.8178E-06  1.7189E-02  6.3165E-05  1.7189E-02  6.3165E-05  9.5557E-04  3.0104E-02                                                                                                                                                                                                                                                                                                                                                                                                                                                                                                                                                                                                            
       4.5000       0.5000      -9.5000  6.34630E+00   89.500  0.00000E+00  1.00000E+00  1.00074 10.4992  1.0006E-10  1.0006E-10  8.8179E-06  1.7189E-02  6.3165E-05  1.7189E-02  6.3165E-05  9.5558E-04  3.0105E-02                                                                                                                                                                                                                                                                                                                                                                                                                                                                                                                                                                                                            
       0.5000       0.5000      -8.5000  6.24770E+00   88.500  0.00000E+00  1.00000E+00  1.00070 10.4996  1.0006E-10  1.0006E-10  8.6915E-06  1.6325E-02  6.1527E-05  1.6325E-02  6.1527E-05  8.9220E-04  2.8886E-02                                                                                                                                                                                                                                                                                                                                                                                                                                                                                                                                                                                                            
       1.5000       0.5000      -8.5000  6.24514E+00   88.500  0.00000E+00  1.00000E+00  1.00070 10.4996  1.0006E-10  1.0006E-10  8.6914E-06  1.6325E-02  6.1527E-05  1.6325E-02  6.1527E-05  8.9219E-04  2.8886E-02                                                                                                                                                                                                                                                                                                                                                                                                                                                                                                                                                                                                            
       2.5000       0.5000      -8.5000  6.23977E+00   88.500  0.00000E+00  1.00000E+00  1.00070 10.4996  1.0006E-10  1.0006E-10  8.6914E-06  1.6325E-02  6.1527E-05  1.6325E-02  6.1527E-05  8.9218E-04  2.8886E-02                                                                                                                                                                                                                                                                                                                                                                                                                                                                                                                                                                                                            
       3.5000       0.5000      -8.5000  6.24514E+00   88.500  0.00000E+00  1.00000E+00  1.00070 10.4996  1.0006E-10  1.0006E-10  8.6914E-06  1.6325E-02  6.1527E-05  1.6325E-02  6.1527E-05  8.9219E-04  2.8886E-02                                                                                                                                                                                                                                                                                                                                                                                                                                                                                                                                                                                                            
       4.5000       0.5000      -8.5000  6.24770E+00   88.500  0.00000E+00  1.00000E+00  1.00070 10.4996  1.0006E-10  1.0006E-10  8.6915E-06  1.6325E-02  6.1527E-05  1.6325E-02  6.1527E-05  8.9220E-04  2.8886E-02                                                                                                                                                                                                                                                                                                                                                                                                                                                                                                                                                                                                            
       0.5000       0.5000      -7.5000  6.14811E+00   87.500  0.00000E+00  1.00000E+00  1.00066 10.5002  1.0006E-10  1.0006E-10  8.5692E-06  1.5509E-02  5.9949E-05  1.5509E-02  5.9949E-05  8.3310E-04  2.7726E-02                                                                                                                                                                                                                                                                                                                                                                                                                                                                                                                                                                                                            
       1.5000       0.5000      -7.5000  6.14644E+00   87.500  0.00000E+00  1.00000E+00  1.00066 10.5002  1.0006E-10  1.0006E-10  8.5692E-06  1.5509E-02  5.9949E-05  1.5509E-02  5.9949E-05  8.3309E-04  2.7726E-02                                                                                                                                                                                                                                                                                                                                                                                                                                                                                                                                                                                                            
       2.5000       0.5000      -7.5000  6.14302E+00   87.500  0.00000E+00  1.00000E+00  1.00066 10.5002  1.0006E-10  1.0006E-10  8.5692E-06  1.5508E-02  5.9949E-05  1.5508E-02  5.9949E-05  8.3309E-04  2.7725E-02                                                                                                                                                                                                                                                                                                                                                                                                                                                                                                                                                                                                            
       3.5000       0.5000      -7.5000  6.14644E+00   87.500  0.00000E+00  1.00000E+00  1.00066 10.5002  1.0006E-10  1.0006E-10  8.5692E-06  1.5509E-02  5.9949E-05  1.5509E-02  5.9949E-05  8.3309E-04  2.7726E-02                                                                                                                                                                                                                                                                                                                                                                                                                                                                                                                                                                                                            
       4.5000       0.5000      -7.5000  6.14811E+00   87.500  0.00000E+00  1.00000E+00  1.00066 10.5002  1.0006E-10  1.0006E-10  8.5692E-06  1.5509E-02  5.9949E-05  1.5509E-02  5.9949E-05  8.3310E-04  2.7726E-02                                                                                                                                                                                                                                                                                                                                                                                                                                                                                                                                                                                                            
       0.5000       0.5000      -6.5000  6.04842E+00   86.500  0.00000E+00  1.00000E+00  1.00063 10.5010  1.0005E-10  1.0005E-10  8.4512E-06  1.4737E-02  5.8428E-05  1.4737E-02  5.8428E-05  7.7799E-04  2.6620E-02                                                                                                                                                                                                                                                                                                                                                                                                                                                                                                                                                                                                            
       1.5000       0.5000      -6.5000  6.04748E+00   86.500  0.00000E+00  1.00000E+00  1.00063 10.5010  1.0005E-10  1.0005E-10  8.4512E-06  1.4737E-02  5.8428E-05  1.4737E-02  5.8428E-05  7.7799E-04  2.6620E-02                                                                                                                                                                                                                                                                                                                                                                                                                                                                                                                                                                                                            
       2.5000       0.5000      -6.5000  6.04568E+00   86.500  0.00000E+00  1.00000E+00  1.00063 10.5010  1.0005E-10  1.0005E-10  8.4512E-06  1.4737E-02  5.8428E-05  1.4737E-02  5.8428E-05  7.7798E-04  2.6620E-02                                                                                                                                                                                                                                                                                                                                                                                                                                                                                                                                                                                                            
       3.5000       0.5000      -6.5000  6.04748E+00   86.500  0.00000E+00  1.00000E+00  1.00063 10.5010  1.0005E-10  1.0005E-10  8.4512E-06  1.4737E-02  5.8428E-05  1.4737E-02  5.8428E-05  7.7799E-04  2.6620E-02                                                                                                                                                                                                                                                                                                                                                                                                                                                                                                                                                                                                            
       4.5000       0.5000      -6.5000  6.04842E+00   86.500  0.00000E+00  1.00000E+00  1.00063 10.5010  1.0005E-10  1.0005E-10  8.4512E-06  1.4737E-02  5.8428E-05  1.4737E-02  5.8428E-05  7.7799E-04  2.6620E-02                                                                                                                                                                                                                                                                                                                                                                                                                                                                                                                                                                                                            
       0.5000       0.5000      -5.5000  5.94956E+00   85.500  0.00000E+00  1.00000E+00  1.00059 10.5019  1.0005E-10  1.0005E-10  8.3375E-06  1.4007E-02  5.6962E-05  1.4007E-02  5.6962E-05  7.2660E-04  2.5565E-02                                                                                                                                                                                                                                                                                                                                                                                                                                                                                                                                                                                                            
       1.5000       0.5000      -5.5000  5.94900E+00   85.500  0.00000E+00  1.00000E+00  1.00059 10.5019  1.0005E-10  1.0005E-10  8.3375E-06  1.4007E-02  5.6962E-05  1.4007E-02  5.6962E-05  7.2660E-04  2.5565E-02                                                                                                                                                                                                                                                                                                                                                                                                                                                                                                                                                                                                            
       2.5000       0.5000      -5.5000  5.94799E+00   85.500  0.00000E+00  1.00000E+00  1.00059 10.5019  1.0005E-10  1.0005E-10  8.3375E-06  1.4007E-02  5.6962E-05  1.4007E-02  5.6962E-05  7.2660E-04  2.5565E-02                                                                                                                                                                                                                                                                                                                                                                                                                                                                                                                                                                                                            
       3.5000       0.5000      -5.5000  5.94900E+00   85.500  0.00000E+00  1.00000E+00  1.00059 10.5019  1.0005E-10  1.0005E-10  8.3375E-06  1.4007E-02  5.6962E-05  1.4007E-02  5.6962E-05  7.2660E-04  2.5565E-02                                                                                                                                                                                                                                                                                                                                                                                                                                                                                                                                                                                                            
       4.5000       0.5000      -5.5000  5.94956E+00   85.500  0.00000E+00  1.00000E+00  1.00059 10.5019  1.0005E-10  1.0005E-10  8.3375E-06  1.4007E-02  5.6962E-05  1.4007E-02  5.6962E-05  7.2660E-04  2.5565E-02                                                                                                                                                                                                                                                                                                                                                                                                                                                                                                                                                                                                            
       0.5000       0.5000      -4.5000  5.84753E+00   84.500  0.00000E+00  1.00000E+00  1.00056 10.5031  1.0005E-10  1.0005E-10  8.2281E-06  1.3316E-02  5.5547E-05  1.3316E-02  5.5547E-05  6.7868E-04  2.4560E-02                                                                                                                                                                                                                                                                                                                                                                                                                                                                                                                                                                                                            
       1.5000       0.5000      -4.5000  5.84753E+00   84.500  0.00000E+00  1.00000E+00  1.00056 10.5031  1.0005E-10  1.0005E-10  8.2281E-06  1.3316E-02  5.5547E-05  1.3316E-02  5.5547E-05  6.7868E-04  2.4560E-02                                                                                                                                                                                                                                                                                                                                                                                                                                                                                                                                                                                                            
       2.5000       0.5000      -4.5000  5.85017E+00   84.500  0.00000E+00  1.00000E+00  1.00056 10.5031  1.0005E-10  1.0005E-10  8.2282E-06  1.3316E-02  5.5547E-05  1.3316E-02  5.5547E-05  6.7868E-04  2.4560E-02                                                                                                                                                                                                                                                                                                                                                                                                                                                                                                                                                                                                            
       3.5000       0.5000      -4.5000  5.84753E+00   84.500  0.00000E+00  1.00000E+00  1.00056 10.5031  1.0005E-10  1.0005E-10  8.2281E-06  1.3316E-02  5.5547E-05  1.3316E-02  5.5547E-05  6.7868E-04  2.4560E-02                                                                                                                                                                                                                                                                                                                                                                                                                                                                                                                                                                                                            
       4.5000       0.5000      -4.5000  5.84753E+00   84.500  0.00000E+00  1.00000E+00  1.00056 10.5031  1.0005E-10  1.0005E-10  8.2281E-06  1.3316E-02  5.5547E-05  1.3316E-02  5.5547E-05  6.7868E-04  2.4560E-02                                                                                                                                                                                                                                                                                                                                                                                                                                                                                                                                                                                                            
       0.5000       0.5000      -3.5000  5.74708E+00   83.500  0.00000E+00  1.00000E+00  1.00053 10.5045  1.0005E-10  1.0005E-10  8.1233E-06  1.2663E-02  5.4181E-05  1.2663E-02  5.4181E-05  6.3399E-04  2.3601E-02                                                                                                                                                                                                                                                                                                                                                                                                                                                                                                                                                                                                            
       1.5000       0.5000      -3.5000  5.74708E+00   83.500  0.00000E+00  1.00000E+00  1.00053 10.5045  1.0005E-10  1.0005E-10  8.1233E-06  1.2663E-02  5.4181E-05  1.2663E-02  5.4181E-05  6.3399E-04  2.3601E-02                                                                                                                                                                                                                                                                                                                                                                                                                                                                                                                                                                                                            
       2.5000       0.5000      -3.5000  5.75243E+00   83.500  0.00000E+00  1.00000E+00  1.00053 10.5045  1.0005E-10  1.0005E-10  8.1233E-06  1.2663E-02  5.4181E-05  1.2663E-02  5.4181E-05  6.3400E-04  2.3601E-02                                                                                                                                                                                                                                                                                                                                                                                                                                                                                                                                                                                                            
       3.5000       0.5000      -3.5000  5.74708E+00   83.500  0.00000E+00  1.00000E+00  1.00053 10.5045  1.0005E-10  1.0005E-10  8.1233E-06  1.2663E-02  5.4181E-05  1.2663E-02  5.4181E-05  6.3399E-04  2.3601E-02                                                                                                                                                                                                                                                                                                                                                                                                                                                                                                                                                                                                            
       4.5000       0.5000      -3.5000  5.74708E+00   83.500  0.00000E+00  1.00000E+00  1.00053 10.5045  1.0005E-10  1.0005E-10  8.1233E-06  1.2663E-02  5.4181E-05  1.2663E-02  5.4181E-05  6.3399E-04  2.3601E-02                                                                                                                                                                                                                                                                                                                                                                                                                                                                                                                                                                                                            