Title="TOUGHREACT V3.30-OMP: Aqueous Total & Species Concentrations in mol/kg h2o, Surface & Exchanged Species in mol/kg h2o, Dry blocks in mol/L medium"                                                                                                                                                                                                                                                                                                                                                                                                                                                                                                                                                                                                                                                                       
Variables= "X(m)"   "Y(m)"   "Z(m)"   "P(bar)"     "T(C)"   "SatGas"   "SatLiq"     "aH2O"       "pH"        "t_na+"        "t_cl-"      "t_hco3-"       "t_ca+2"      "t_so4-2"       "t_mg+2"       "t_ba+2"       "t_al+3"     "t_h4sio4"                                                                                                                                                                                                                                                                                                                                                                                                                                                                                                                                                                                    
Zone T= "3.16887907E+02 yr" I=      5J=      5K=     10F=Point 
       0.5000       0.5000      -9.5000  2.58813E+00   85.009  0.00000E+00  1.00000E+00  1.00057 10.4990  1.0015E-10  1.0015E-10  8.2390E-06  1.3521E-02  5.6035E-05  1.3522E-02  5.6038E-05  6.9645E-04  2.4840E-02                                                                                                                                                                                                                                                                                                                                                                                                                                                                                                                                                                                                            
       1.5000       0.5000      -9.5000  2.58813E+00   85.009  0.00000E+00  1.00000E+00  1.00057 10.4990  1.0015E-10  1.0015E-10  8.2390E-06  1.3521E-02  5.6035E-05  1.3522E-02  5.6038E-05  6.9645E-04  2.4840E-02                                                                                                                                                                                                                                                                                                                                                                                                                                                                                                                                                                                                            
       2.5000       0.5000      -9.5000  2.58813E+00   85.009  0.00000E+00  1.00000E+00  1.00057 10.4990  1.0015E-10  1.0015E-10  8.2390E-06  1.3521E-02  5.6035E-05  1.3522E-02  5.6038E-05  6.9645E-04  2.4840E-02                                                                                                                                                                                                                                                                                                                                                                                                                                                                                                                                                                                                            
       3.5000       0.5000      -9.5000  2.58813E+00   85.009  0.00000E+00  1.00000E+00  1.00057 10.4990  1.0015E-10  1.0015E-10  8.2390E-06  1.3521E-02  5.6035E-05  1.3522E-02  5.6038E-05  6.9645E-04  2.4840E-02                                                                                                                                                                                                                                                                                                                                                                                                                                                                                                                                                                                                            
       4.5000       0.5000      -9.5000  2.58813E+00   85.009  0.00000E+00  1.00000E+00  1.00057 10.4990  1.0015E-10  1.0015E-10  8.2390E-06  1.3521E-02  5.6035E-05  1.3522E-02  5.6038E-05  6.9645E-04  2.4840E-02                                                                                                                                                                                                                                                                                                                                                                                                                                                                                                                                                                                                            
       0.5000       0.5000      -8.5000  2.49322E+00   85.009  0.00000E+00  1.00000E+00  1.00057 10.4989  1.0015E-10  1.0015E-10  8.2376E-06  1.3517E-02  5.6026E-05  1.3518E-02  5.6033E-05  6.9628E-04  2.4834E-02                                                                                                                                                                                                                                                                                                                                                                                                                                                                                                                                                                                                            
       1.5000       0.5000      -8.5000  2.49322E+00   85.009  0.00000E+00  1.00000E+00  1.00057 10.4989  1.0015E-10  1.0015E-10  8.2376E-06  1.3517E-02  5.6026E-05  1.3518E-02  5.6033E-05  6.9628E-04  2.4834E-02                                                                                                                                                                                                                                                                                                                                                                                                                                                                                                                                                                                                            
       2.5000       0.5000      -8.5000  2.49322E+00   85.009  0.00000E+00  1.00000E+00  1.00057 10.4989  1.0015E-10  1.0015E-10  8.2376E-06  1.3517E-02  5.6026E-05  1.3518E-02  5.6033E-05  6.9628E-04  2.4834E-02                                                                                                                                                                                                                                                                                                                                                                                                                                                                                                                                                                                                            
       3.5000       0.5000      -8.5000  2.49322E+00   85.009  0.00000E+00  1.00000E+00  1.00057 10.4989  1.0015E-10  1.0015E-10  8.2376E-06  1.3517E-02  5.6026E-05  1.3518E-02  5.6033E-05  6.9628E-04  2.4834E-02                                                                                                                                                                                                                                                                                                                                                                                                                                                                                                                                                                                                            
       4.5000       0.5000      -8.5000  2.49322E+00   85.009  0.00000E+00  1.00000E+00  1.00057 10.4989  1.0015E-10  1.0015E-10  8.2376E-06  1.3517E-02  5.6026E-05  1.3518E-02  5.6033E-05  6.9628E-04  2.4834E-02                                                                                                                                                                                                                                                                                                                                                                                                                                                                                                                                                                                                            
       0.5000       0.5000      -7.5000  2.39830E+00   85.009  0.00000E+00  1.00000E+00  1.00057 10.4988  1.0015E-10  1.0015E-10  8.2363E-06  1.3512E-02  5.6019E-05  1.3514E-02  5.6027E-05  6.9610E-04  2.4827E-02                                                                                                                                                                                                                                                                                                                                                                                                                                                                                                                                                                                                            
       1.5000       0.5000      -7.5000  2.39830E+00   85.009  0.00000E+00  1.00000E+00  1.00057 10.4988  1.0015E-10  1.0015E-10  8.2363E-06  1.3512E-02  5.6019E-05  1.3514E-02  5.6027E-05  6.9610E-04  2.4827E-02                                                                                                                                                                                                                                                                                                                                                                                                                                                                                                                                                                                                            
       2.5000       0.5000      -7.5000  2.39830E+00   85.009  0.00000E+00  1.00000E+00  1.00057 10.4988  1.0015E-10  1.0015E-10  8.2363E-06  1.3512E-02  5.6019E-05  1.3514E-02  5.6027E-05  6.9610E-04  2.4827E-02                                                                                                                                                                                                                                                                                                                                                                                                                                                                                                                                                                                                            
       3.5000       0.5000      -7.5000  2.39830E+00   85.009  0.00000E+00  1.00000E+00  1.00057 10.4988  1.0015E-10  1.0015E-10  8.2363E-06  1.3512E-02  5.6019E-05  1.3514E-02  5.6027E-05  6.9610E-04  2.4827E-02                                                                                                                                                                                                                                                                                                                                                                                                                                                                                                                                                                                                            
       4.5000       0.5000      -7.5000  2.39830E+00   85.009  0.00000E+00  1.00000E+00  1.00057 10.4988  1.0015E-10  1.0015E-10  8.2363E-06  1.3512E-02  5.6019E-05  1.3514E-02  5.6027E-05  6.9610E-04  2.4827E-02                                                                                                                                                                                                                                                                                                                                                                                                                                                                                                                                                                                                            
       0.5000       0.5000      -6.5000  2.30339E+00   85.009  0.00000E+00  1.00000E+00  1.00057 10.4987  1.0015E-10  1.0015E-10  8.2350E-06  1.3508E-02  5.6012E-05  1.3510E-02  5.6021E-05  6.9593E-04  2.4821E-02                                                                                                                                                                                                                                                                                                                                                                                                                                                                                                                                                                                                            
       1.5000       0.5000      -6.5000  2.30339E+00   85.009  0.00000E+00  1.00000E+00  1.00057 10.4987  1.0015E-10  1.0015E-10  8.2350E-06  1.3508E-02  5.6012E-05  1.3510E-02  5.6021E-05  6.9593E-04  2.4821E-02                                                                                                                                                                                                                                                                                                                                                                                                                                                                                                                                                                                                            
       2.5000       0.5000      -6.5000  2.30339E+00   85.009  0.00000E+00  1.00000E+00  1.00057 10.4987  1.0015E-10  1.0015E-10  8.2350E-06  1.3508E-02  5.6012E-05  1.3510E-02  5.6021E-05  6.9593E-04  2.4821E-02                                                                                                                                                                                                                                                                                                                                                                                                                                                                                                                                                                                                            
       3.5000       0.5000      -6.5000  2.30339E+00   85.009  0.00000E+00  1.00000E+00  1.00057 10.4987  1.0015E-10  1.0015E-10  8.2350E-06  1.3508E-02  5.6012E-05  1.3510E-02  5.6021E-05  6.9593E-04  2.4821E-02                                                                                                                                                                                                                                                                                                                                                                                                                                                                                                                                                                                                            
       4.5000       0.5000      -6.5000  2.30339E+00   85.009  0.00000E+00  1.00000E+00  1.00057 10.4987  1.0015E-10  1.0015E-10  8.2350E-06  1.3508E-02  5.6012E-05  1.3510E-02  5.6021E-05  6.9593E-04  2.4821E-02                                                                                                                                                                                                                                                                                                                                                                                                                                                                                                                                                                                                            
       0.5000       0.5000      -5.5000  2.20847E+00   85.009  0.00000E+00  1.00000E+00  1.00057 10.4986  1.0015E-10  1.0015E-10  8.2338E-06  1.3504E-02  5.6006E-05  1.3506E-02  5.6014E-05  6.9575E-04  2.4815E-02                                                                                                                                                                                                                                                                                                                                                                                                                                                                                                                                                                                                            
       1.5000       0.5000      -5.5000  2.20847E+00   85.009  0.00000E+00  1.00000E+00  1.00057 10.4986  1.0015E-10  1.0015E-10  8.2338E-06  1.3504E-02  5.6006E-05  1.3506E-02  5.6014E-05  6.9575E-04  2.4815E-02                                                                                                                                                                                                                                                                                                                                                                                                                                                                                                                                                                                                            
       2.5000       0.5000      -5.5000  2.20847E+00   85.009  0.00000E+00  1.00000E+00  1.00057 10.4986  1.0015E-10  1.0015E-10  8.2338E-06  1.3504E-02  5.6006E-05  1.3506E-02  5.6014E-05  6.9575E-04  2.4815E-02                                                                                                                                                                                                                                                                                                                                                                                                                                                                                                                                                                                                            
       3.5000       0.5000      -5.5000  2.20847E+00   85.009  0.00000E+00  1.00000E+00  1.00057 10.4986  1.0015E-10  1.0015E-10  8.2338E-06  1.3504E-02  5.6006E-05  1.3506E-02  5.6014E-05  6.9575E-04  2.4815E-02                                                                                                                                                                                                                                                                                                                                                                                                                                                                                                                                                                                                            
       4.5000       0.5000      -5.5000  2.20847E+00   85.009  0.00000E+00  1.00000E+00  1.00057 10.4986  1.0015E-10  1.0015E-10  8.2338E-06  1.3504E-02  5.6006E-05  1.3506E-02  5.6014E-05  6.9575E-04  2.4815E-02                                                                                                                                                                                                                                                                                                                                                                                                                                                                                                                                                                                                            
       0.5000       0.5000      -4.5000  2.11356E+00   85.009  0.00000E+00  1.00000E+00  1.00057 10.4985  1.0015E-10  1.0015E-10  8.2325E-06  1.3500E-02  5.5999E-05  1.3502E-02  5.6008E-05  6.9557E-04  2.4808E-02                                                                                                                                                                                                                                                                                                                                                                                                                                                                                                                                                                                                            
       1.5000       0.5000      -4.5000  2.11356E+00   85.009  0.00000E+00  1.00000E+00  1.00057 10.4985  1.0015E-10  1.0015E-10  8.2325E-06  1.3500E-02  5.5999E-05  1.3502E-02  5.6008E-05  6.9557E-04  2.4808E-02                                                                                                                                                                                                                                                                                                                                                                                                                                                                                                                                                                                                            
       2.5000       0.5000      -4.5000  2.11356E+00   85.009  0.00000E+00  1.00000E+00  1.00057 10.4985  1.0015E-10  1.0015E-10  8.2325E-06  1.3500E-02  5.5999E-05  1.3502E-02  5.6008E-05  6.9557E-04  2.4808E-02                                                                                                                                                                                                                                                                                                                                                                                                                                                                                                                                                                                                            
       3.5000       0.5000      -4.5000  2.11356E+00   85.009  0.00000E+00  1.00000E+00  1.00057 10.4985  1.0015E-10  1.0015E-10  8.2325E-06  1.3500E-02  5.5999E-05  1.3502E-02  5.6008E-05  6.9557E-04  2.4808E-02                                                                                                                                                                                                                                                                                                                                                                                                                                                                                                                                                                                                            
       4.5000       0.5000      -4.5000  2.11356E+00   85.009  0.00000E+00  1.00000E+00  1.00057 10.4985  1.0015E-10  1.0015E-10  8.2325E-06  1.3500E-02  5.5999E-05  1.3502E-02  5.6008E-05  6.9557E-04  2.4808E-02                                                                                                                                                                                                                                                                                                                                                                                                                                                                                                                                                                                                            
       0.5000       0.5000      -3.5000  2.01865E+00   85.009  0.00000E+00  1.00000E+00  1.00057 10.4984  1.0015E-10  1.0015E-10  8.2312E-06  1.3496E-02  5.5993E-05  1.3498E-02  5.6002E-05  6.9540E-04  2.4802E-02                                                                                                                                                                                                                                                                                                                                                                                                                                                                                                                                                                                                            
       1.5000       0.5000      -3.5000  2.01865E+00   85.009  0.00000E+00  1.00000E+00  1.00057 10.4984  1.0015E-10  1.0015E-10  8.2312E-06  1.3496E-02  5.5993E-05  1.3498E-02  5.6002E-05  6.9540E-04  2.4802E-02                                                                                                                                                                                                                                                                                                                                                                                                                                                                                                                                                                                                            
       2.5000       0.5000      -3.5000  2.01865E+00   85.009  0.00000E+00  1.00000E+00  1.00057 10.4984  1.0015E-10  1.0015E-10  8.2312E-06  1.3496E-02  5.5993E-05  1.3498E-02  5.6002E-05  6.9540E-04  2.4802E-02                                                                                                                                                                                                                                                                                                                                                                                                                                                                                                                                                                                                            
       3.5000       0.5000      -3.5000  2.01865E+00   85.009  0.00000E+00  1.00000E+00  1.00057 10.4984  1.0015E-10  1.0015E-10  8.2312E-06  1.3496E-02  5.5993E-05  1.3498E-02  5.6002E-05  6.9540E-04  2.4802E-02                                                                                                                                                                                                                                                                                                                                                                                                                                                                                                                                                                                                            
       4.5000       0.5000      -3.5000  2.01865E+00   85.009  0.00000E+00  1.00000E+00  1.00057 10.4984  1.0015E-10  1.0015E-10  8.2312E-06  1.3496E-02  5.5993E-05  1.3498E-02  5.6002E-05  6.9540E-04  2.4802E-02                                                                                                                                                                                                                                                                                                                                                                                                                                                                                                                                                                                                            