Title="TOUGHREACT V3.30-OMP: Aqueous Total & Species Concentrations in mol/kg h2o, Surface & Exchanged Species in mol/kg h2o, Dry blocks in mol/L medium"                                                                                                                                                                                                                                                                                                                                                                                                                                                                                                                                                                                                                                                                       
Variables= "X(m)"   "Y(m)"   "Z(m)"   "P(bar)"     "T(C)"   "SatGas"   "SatLiq"     "aH2O"       "pH"        "t_na+"        "t_cl-"      "t_hco3-"       "t_ca+2"      "t_so4-2"       "t_mg+2"       "t_ba+2"       "t_al+3"     "t_h4sio4"                                                                                                                                                                                                                                                                                                                                                                                                                                                                                                                                                                                    
Zone T= "3.16887907E-01 yr" I=      5J=      5K=     10F=Point 
       0.5000       0.5000      -9.5000  2.58603E+00   85.856  0.00000E+00  1.00000E+00  1.00060 10.4980  1.0016E-10  1.0016E-10  8.3310E-06  1.4111E-02  5.7241E-05  1.4111E-02  5.7241E-05  7.3773E-04  2.5694E-02                                                                                                                                                                                                                                                                                                                                                                                                                                                                                                                                                                                                            
       1.5000       0.5000      -9.5000  2.58603E+00   85.858  0.00000E+00  1.00000E+00  1.00060 10.4980  1.0016E-10  1.0016E-10  8.3312E-06  1.4112E-02  5.7243E-05  1.4112E-02  5.7243E-05  7.3782E-04  2.5696E-02                                                                                                                                                                                                                                                                                                                                                                                                                                                                                                                                                                                                            
       2.5000       0.5000      -9.5000  2.58603E+00   85.862  0.00000E+00  1.00000E+00  1.00060 10.4980  1.0016E-10  1.0016E-10  8.3317E-06  1.4115E-02  5.7249E-05  1.4115E-02  5.7249E-05  7.3802E-04  2.5700E-02                                                                                                                                                                                                                                                                                                                                                                                                                                                                                                                                                                                                            
       3.5000       0.5000      -9.5000  2.58603E+00   85.858  0.00000E+00  1.00000E+00  1.00060 10.4980  1.0016E-10  1.0016E-10  8.3312E-06  1.4112E-02  5.7243E-05  1.4112E-02  5.7243E-05  7.3782E-04  2.5696E-02                                                                                                                                                                                                                                                                                                                                                                                                                                                                                                                                                                                                            
       4.5000       0.5000      -9.5000  2.58603E+00   85.856  0.00000E+00  1.00000E+00  1.00060 10.4980  1.0016E-10  1.0016E-10  8.3310E-06  1.4111E-02  5.7241E-05  1.4111E-02  5.7241E-05  7.3773E-04  2.5694E-02                                                                                                                                                                                                                                                                                                                                                                                                                                                                                                                                                                                                            
       0.5000       0.5000      -8.5000  2.49116E+00   85.773  0.00000E+00  1.00000E+00  1.00060 10.4980  1.0016E-10  1.0016E-10  8.3206E-06  1.4048E-02  5.7114E-05  1.4048E-02  5.7114E-05  7.3339E-04  2.5602E-02                                                                                                                                                                                                                                                                                                                                                                                                                                                                                                                                                                                                            
       1.5000       0.5000      -8.5000  2.49116E+00   85.775  0.00000E+00  1.00000E+00  1.00060 10.4980  1.0016E-10  1.0016E-10  8.3208E-06  1.4049E-02  5.7117E-05  1.4049E-02  5.7117E-05  7.3347E-04  2.5604E-02                                                                                                                                                                                                                                                                                                                                                                                                                                                                                                                                                                                                            
       2.5000       0.5000      -8.5000  2.49116E+00   85.778  0.00000E+00  1.00000E+00  1.00060 10.4980  1.0016E-10  1.0016E-10  8.3212E-06  1.4051E-02  5.7122E-05  1.4051E-02  5.7122E-05  7.3364E-04  2.5608E-02                                                                                                                                                                                                                                                                                                                                                                                                                                                                                                                                                                                                            
       3.5000       0.5000      -8.5000  2.49116E+00   85.775  0.00000E+00  1.00000E+00  1.00060 10.4980  1.0016E-10  1.0016E-10  8.3208E-06  1.4049E-02  5.7117E-05  1.4049E-02  5.7117E-05  7.3347E-04  2.5604E-02                                                                                                                                                                                                                                                                                                                                                                                                                                                                                                                                                                                                            
       4.5000       0.5000      -8.5000  2.49116E+00   85.773  0.00000E+00  1.00000E+00  1.00060 10.4980  1.0016E-10  1.0016E-10  8.3206E-06  1.4048E-02  5.7114E-05  1.4048E-02  5.7114E-05  7.3339E-04  2.5602E-02                                                                                                                                                                                                                                                                                                                                                                                                                                                                                                                                                                                                            
       0.5000       0.5000      -7.5000  2.39629E+00   85.615  0.00000E+00  1.00000E+00  1.00059 10.4981  1.0015E-10  1.0015E-10  8.3020E-06  1.3932E-02  5.6881E-05  1.3932E-02  5.6882E-05  7.2537E-04  2.5434E-02                                                                                                                                                                                                                                                                                                                                                                                                                                                                                                                                                                                                            
       1.5000       0.5000      -7.5000  2.39629E+00   85.617  0.00000E+00  1.00000E+00  1.00059 10.4981  1.0015E-10  1.0015E-10  8.3021E-06  1.3933E-02  5.6883E-05  1.3933E-02  5.6883E-05  7.2543E-04  2.5436E-02                                                                                                                                                                                                                                                                                                                                                                                                                                                                                                                                                                                                            
       2.5000       0.5000      -7.5000  2.39629E+00   85.620  0.00000E+00  1.00000E+00  1.00059 10.4981  1.0015E-10  1.0015E-10  8.3024E-06  1.3935E-02  5.6887E-05  1.3935E-02  5.6887E-05  7.2557E-04  2.5439E-02                                                                                                                                                                                                                                                                                                                                                                                                                                                                                                                                                                                                            
       3.5000       0.5000      -7.5000  2.39629E+00   85.617  0.00000E+00  1.00000E+00  1.00059 10.4981  1.0015E-10  1.0015E-10  8.3021E-06  1.3933E-02  5.6883E-05  1.3933E-02  5.6883E-05  7.2543E-04  2.5436E-02                                                                                                                                                                                                                                                                                                                                                                                                                                                                                                                                                                                                            
       4.5000       0.5000      -7.5000  2.39629E+00   85.615  0.00000E+00  1.00000E+00  1.00059 10.4981  1.0015E-10  1.0015E-10  8.3020E-06  1.3932E-02  5.6881E-05  1.3932E-02  5.6882E-05  7.2537E-04  2.5434E-02                                                                                                                                                                                                                                                                                                                                                                                                                                                                                                                                                                                                            
       0.5000       0.5000      -6.5000  2.30141E+00   85.398  0.00000E+00  1.00000E+00  1.00058 10.4982  1.0015E-10  1.0015E-10  8.2771E-06  1.3777E-02  5.6566E-05  1.3777E-02  5.6566E-05  7.1456E-04  2.5208E-02                                                                                                                                                                                                                                                                                                                                                                                                                                                                                                                                                                                                            
       1.5000       0.5000      -6.5000  2.30141E+00   85.399  0.00000E+00  1.00000E+00  1.00058 10.4982  1.0015E-10  1.0015E-10  8.2772E-06  1.3777E-02  5.6567E-05  1.3777E-02  5.6567E-05  7.1460E-04  2.5209E-02                                                                                                                                                                                                                                                                                                                                                                                                                                                                                                                                                                                                            
       2.5000       0.5000      -6.5000  2.30141E+00   85.401  0.00000E+00  1.00000E+00  1.00058 10.4982  1.0015E-10  1.0015E-10  8.2774E-06  1.3778E-02  5.6570E-05  1.3778E-02  5.6570E-05  7.1468E-04  2.5211E-02                                                                                                                                                                                                                                                                                                                                                                                                                                                                                                                                                                                                            
       3.5000       0.5000      -6.5000  2.30141E+00   85.399  0.00000E+00  1.00000E+00  1.00058 10.4982  1.0015E-10  1.0015E-10  8.2772E-06  1.3777E-02  5.6567E-05  1.3777E-02  5.6567E-05  7.1460E-04  2.5209E-02                                                                                                                                                                                                                                                                                                                                                                                                                                                                                                                                                                                                            
       4.5000       0.5000      -6.5000  2.30141E+00   85.398  0.00000E+00  1.00000E+00  1.00058 10.4982  1.0015E-10  1.0015E-10  8.2771E-06  1.3777E-02  5.6566E-05  1.3777E-02  5.6566E-05  7.1456E-04  2.5208E-02                                                                                                                                                                                                                                                                                                                                                                                                                                                                                                                                                                                                            
       0.5000       0.5000      -5.5000  2.20651E+00   85.143  0.00000E+00  1.00000E+00  1.00057 10.4984  1.0015E-10  1.0015E-10  8.2483E-06  1.3597E-02  5.6199E-05  1.3597E-02  5.6199E-05  7.0210E-04  2.4947E-02                                                                                                                                                                                                                                                                                                                                                                                                                                                                                                                                                                                                            
       1.5000       0.5000      -5.5000  2.20651E+00   85.144  0.00000E+00  1.00000E+00  1.00057 10.4984  1.0015E-10  1.0015E-10  8.2484E-06  1.3597E-02  5.6200E-05  1.3597E-02  5.6200E-05  7.0211E-04  2.4947E-02                                                                                                                                                                                                                                                                                                                                                                                                                                                                                                                                                                                                            
       2.5000       0.5000      -5.5000  2.20651E+00   85.144  0.00000E+00  1.00000E+00  1.00057 10.4984  1.0015E-10  1.0015E-10  8.2484E-06  1.3598E-02  5.6201E-05  1.3598E-02  5.6201E-05  7.0214E-04  2.4947E-02                                                                                                                                                                                                                                                                                                                                                                                                                                                                                                                                                                                                            
       3.5000       0.5000      -5.5000  2.20651E+00   85.144  0.00000E+00  1.00000E+00  1.00057 10.4984  1.0015E-10  1.0015E-10  8.2484E-06  1.3597E-02  5.6200E-05  1.3597E-02  5.6200E-05  7.0211E-04  2.4947E-02                                                                                                                                                                                                                                                                                                                                                                                                                                                                                                                                                                                                            
       4.5000       0.5000      -5.5000  2.20651E+00   85.143  0.00000E+00  1.00000E+00  1.00057 10.4984  1.0015E-10  1.0015E-10  8.2483E-06  1.3597E-02  5.6199E-05  1.3597E-02  5.6199E-05  7.0210E-04  2.4947E-02                                                                                                                                                                                                                                                                                                                                                                                                                                                                                                                                                                                                            
       0.5000       0.5000      -4.5000  2.11228E+00   84.875  0.00000E+00  1.00000E+00  1.00057 10.4987  1.0015E-10  1.0015E-10  8.2185E-06  1.3411E-02  5.5818E-05  1.3411E-02  5.5818E-05  6.8925E-04  2.4675E-02                                                                                                                                                                                                                                                                                                                                                                                                                                                                                                                                                                                                            
       1.5000       0.5000      -4.5000  2.11195E+00   84.875  0.00000E+00  1.00000E+00  1.00057 10.4987  1.0015E-10  1.0015E-10  8.2185E-06  1.3411E-02  5.5818E-05  1.3411E-02  5.5818E-05  6.8923E-04  2.4675E-02                                                                                                                                                                                                                                                                                                                                                                                                                                                                                                                                                                                                            
       2.5000       0.5000      -4.5000  2.11160E+00   84.874  0.00000E+00  1.00000E+00  1.00057 10.4987  1.0015E-10  1.0015E-10  8.2184E-06  1.3410E-02  5.5817E-05  1.3410E-02  5.5817E-05  6.8920E-04  2.4674E-02                                                                                                                                                                                                                                                                                                                                                                                                                                                                                                                                                                                                            
       3.5000       0.5000      -4.5000  2.11195E+00   84.875  0.00000E+00  1.00000E+00  1.00057 10.4987  1.0015E-10  1.0015E-10  8.2185E-06  1.3411E-02  5.5818E-05  1.3411E-02  5.5818E-05  6.8923E-04  2.4675E-02                                                                                                                                                                                                                                                                                                                                                                                                                                                                                                                                                                                                            
       4.5000       0.5000      -4.5000  2.11228E+00   84.875  0.00000E+00  1.00000E+00  1.00057 10.4987  1.0015E-10  1.0015E-10  8.2185E-06  1.3411E-02  5.5818E-05  1.3411E-02  5.5818E-05  6.8925E-04  2.4675E-02                                                                                                                                                                                                                                                                                                                                                                                                                                                                                                                                                                                                            
       0.5000       0.5000      -3.5000  2.01866E+00   84.620  0.00000E+00  1.00000E+00  1.00056 10.4989  1.0014E-10  1.0014E-10  8.1904E-06  1.3237E-02  5.5458E-05  1.3237E-02  5.5458E-05  6.7724E-04  2.4420E-02                                                                                                                                                                                                                                                                                                                                                                                                                                                                                                                                                                                                            
       1.5000       0.5000      -3.5000  2.01769E+00   84.619  0.00000E+00  1.00000E+00  1.00056 10.4989  1.0014E-10  1.0014E-10  8.1903E-06  1.3236E-02  5.5457E-05  1.3236E-02  5.5457E-05  6.7720E-04  2.4419E-02                                                                                                                                                                                                                                                                                                                                                                                                                                                                                                                                                                                                            
       2.5000       0.5000      -3.5000  2.01667E+00   84.618  0.00000E+00  1.00000E+00  1.00056 10.4989  1.0014E-10  1.0014E-10  8.1901E-06  1.3235E-02  5.5455E-05  1.3235E-02  5.5455E-05  6.7712E-04  2.4418E-02                                                                                                                                                                                                                                                                                                                                                                                                                                                                                                                                                                                                            
       3.5000       0.5000      -3.5000  2.01769E+00   84.619  0.00000E+00  1.00000E+00  1.00056 10.4989  1.0014E-10  1.0014E-10  8.1903E-06  1.3236E-02  5.5457E-05  1.3236E-02  5.5457E-05  6.7720E-04  2.4419E-02                                                                                                                                                                                                                                                                                                                                                                                                                                                                                                                                                                                                            
       4.5000       0.5000      -3.5000  2.01866E+00   84.620  0.00000E+00  1.00000E+00  1.00056 10.4989  1.0014E-10  1.0014E-10  8.1904E-06  1.3237E-02  5.5458E-05  1.3237E-02  5.5458E-05  6.7724E-04  2.4420E-02                                                                                                                                                                                                                                                                                                                                                                                                                                                                                                                                                                                                            