Title="TOUGHREACT V3.30-OMP: Aqueous Total & Species Concentrations in mol/kg h2o, Surface & Exchanged Species in mol/kg h2o, Dry blocks in mol/L medium"                                                                                                                                                                                                                                                                                                                                                                                                                                                                                                                                                                                                                                                                       
Variables= "X(m)"   "Y(m)"   "Z(m)"   "P(bar)"     "T(C)"   "SatGas"   "SatLiq"     "aH2O"       "pH"        "t_na+"        "t_cl-"      "t_hco3-"       "t_ca+2"      "t_so4-2"       "t_mg+2"       "t_ba+2"       "t_al+3"     "t_h4sio4"                                                                                                                                                                                                                                                                                                                                                                                                                                                                                                                                                                                    
Zone T= "1.64274691E-02 yr" I=      5J=      5K=     10F=Point 
       0.5000       0.5000      -9.5000  2.60150E+00   88.851  0.00000E+00  1.00000E+00  1.00070 10.4956  1.0018E-10  1.0018E-10  8.6808E-06  1.6431E-02  6.1806E-05  1.6431E-02  6.1806E-05  9.0494E-04  2.9009E-02                                                                                                                                                                                                                                                                                                                                                                                                                                                                                                                                                                                                            
       1.5000       0.5000      -9.5000  2.60150E+00   88.859  0.00000E+00  1.00000E+00  1.00070 10.4956  1.0018E-10  1.0018E-10  8.6818E-06  1.6438E-02  6.1819E-05  1.6438E-02  6.1819E-05  9.0544E-04  2.9019E-02                                                                                                                                                                                                                                                                                                                                                                                                                                                                                                                                                                                                            
       2.5000       0.5000      -9.5000  2.60149E+00   88.881  0.00000E+00  1.00000E+00  1.00070 10.4956  1.0018E-10  1.0018E-10  8.6846E-06  1.6457E-02  6.1855E-05  1.6457E-02  6.1855E-05  9.0682E-04  2.9045E-02                                                                                                                                                                                                                                                                                                                                                                                                                                                                                                                                                                                                            
       3.5000       0.5000      -9.5000  2.60150E+00   88.859  0.00000E+00  1.00000E+00  1.00070 10.4956  1.0018E-10  1.0018E-10  8.6818E-06  1.6438E-02  6.1819E-05  1.6438E-02  6.1819E-05  9.0544E-04  2.9019E-02                                                                                                                                                                                                                                                                                                                                                                                                                                                                                                                                                                                                            
       4.5000       0.5000      -9.5000  2.60150E+00   88.851  0.00000E+00  1.00000E+00  1.00070 10.4956  1.0018E-10  1.0018E-10  8.6808E-06  1.6431E-02  6.1806E-05  1.6431E-02  6.1806E-05  9.0494E-04  2.9009E-02                                                                                                                                                                                                                                                                                                                                                                                                                                                                                                                                                                                                            
       0.5000       0.5000      -8.5000  2.50681E+00   88.292  0.00000E+00  1.00000E+00  1.00068 10.4958  1.0018E-10  1.0018E-10  8.6113E-06  1.5963E-02  6.0907E-05  1.5963E-02  6.0907E-05  8.7079E-04  2.8346E-02                                                                                                                                                                                                                                                                                                                                                                                                                                                                                                                                                                                                            
       1.5000       0.5000      -8.5000  2.50681E+00   88.297  0.00000E+00  1.00000E+00  1.00068 10.4958  1.0018E-10  1.0018E-10  8.6120E-06  1.5967E-02  6.0916E-05  1.5967E-02  6.0916E-05  8.7111E-04  2.8352E-02                                                                                                                                                                                                                                                                                                                                                                                                                                                                                                                                                                                                            
       2.5000       0.5000      -8.5000  2.50681E+00   88.310  0.00000E+00  1.00000E+00  1.00068 10.4958  1.0018E-10  1.0018E-10  8.6135E-06  1.5978E-02  6.0936E-05  1.5978E-02  6.0936E-05  8.7188E-04  2.8367E-02                                                                                                                                                                                                                                                                                                                                                                                                                                                                                                                                                                                                            
       3.5000       0.5000      -8.5000  2.50681E+00   88.297  0.00000E+00  1.00000E+00  1.00068 10.4958  1.0018E-10  1.0018E-10  8.6120E-06  1.5967E-02  6.0916E-05  1.5967E-02  6.0916E-05  8.7111E-04  2.8352E-02                                                                                                                                                                                                                                                                                                                                                                                                                                                                                                                                                                                                            
       4.5000       0.5000      -8.5000  2.50681E+00   88.292  0.00000E+00  1.00000E+00  1.00068 10.4958  1.0018E-10  1.0018E-10  8.6113E-06  1.5963E-02  6.0907E-05  1.5963E-02  6.0907E-05  8.7079E-04  2.8346E-02                                                                                                                                                                                                                                                                                                                                                                                                                                                                                                                                                                                                            
       0.5000       0.5000      -7.5000  2.41208E+00   87.446  0.00000E+00  1.00000E+00  1.00065 10.4963  1.0017E-10  1.0017E-10  8.5094E-06  1.5285E-02  5.9588E-05  1.5285E-02  5.9588E-05  8.2172E-04  2.7381E-02                                                                                                                                                                                                                                                                                                                                                                                                                                                                                                                                                                                                            
       1.5000       0.5000      -7.5000  2.41208E+00   87.449  0.00000E+00  1.00000E+00  1.00065 10.4963  1.0017E-10  1.0017E-10  8.5098E-06  1.5288E-02  5.9593E-05  1.5288E-02  5.9593E-05  8.2190E-04  2.7384E-02                                                                                                                                                                                                                                                                                                                                                                                                                                                                                                                                                                                                            
       2.5000       0.5000      -7.5000  2.41208E+00   87.455  0.00000E+00  1.00000E+00  1.00065 10.4963  1.0017E-10  1.0017E-10  8.5106E-06  1.5293E-02  5.9602E-05  1.5293E-02  5.9602E-05  8.2226E-04  2.7391E-02                                                                                                                                                                                                                                                                                                                                                                                                                                                                                                                                                                                                            
       3.5000       0.5000      -7.5000  2.41208E+00   87.449  0.00000E+00  1.00000E+00  1.00065 10.4963  1.0017E-10  1.0017E-10  8.5098E-06  1.5288E-02  5.9593E-05  1.5288E-02  5.9593E-05  8.2190E-04  2.7384E-02                                                                                                                                                                                                                                                                                                                                                                                                                                                                                                                                                                                                            
       4.5000       0.5000      -7.5000  2.41208E+00   87.446  0.00000E+00  1.00000E+00  1.00065 10.4963  1.0017E-10  1.0017E-10  8.5094E-06  1.5285E-02  5.9588E-05  1.5285E-02  5.9588E-05  8.2172E-04  2.7381E-02                                                                                                                                                                                                                                                                                                                                                                                                                                                                                                                                                                                                            
       0.5000       0.5000      -6.5000  2.31730E+00   86.492  0.00000E+00  1.00000E+00  1.00062 10.4971  1.0016E-10  1.0016E-10  8.3984E-06  1.4559E-02  5.8150E-05  1.4559E-02  5.8150E-05  7.6983E-04  2.6339E-02                                                                                                                                                                                                                                                                                                                                                                                                                                                                                                                                                                                                            
       1.5000       0.5000      -6.5000  2.31730E+00   86.495  0.00000E+00  1.00000E+00  1.00062 10.4971  1.0016E-10  1.0016E-10  8.3987E-06  1.4561E-02  5.8153E-05  1.4561E-02  5.8153E-05  7.6993E-04  2.6342E-02                                                                                                                                                                                                                                                                                                                                                                                                                                                                                                                                                                                                            
       2.5000       0.5000      -6.5000  2.31730E+00   86.498  0.00000E+00  1.00000E+00  1.00062 10.4971  1.0016E-10  1.0016E-10  8.3990E-06  1.4563E-02  5.8158E-05  1.4563E-02  5.8158E-05  7.7011E-04  2.6345E-02                                                                                                                                                                                                                                                                                                                                                                                                                                                                                                                                                                                                            
       3.5000       0.5000      -6.5000  2.31730E+00   86.495  0.00000E+00  1.00000E+00  1.00062 10.4971  1.0016E-10  1.0016E-10  8.3987E-06  1.4561E-02  5.8153E-05  1.4561E-02  5.8153E-05  7.6993E-04  2.6342E-02                                                                                                                                                                                                                                                                                                                                                                                                                                                                                                                                                                                                            
       4.5000       0.5000      -6.5000  2.31730E+00   86.492  0.00000E+00  1.00000E+00  1.00062 10.4971  1.0016E-10  1.0016E-10  8.3984E-06  1.4559E-02  5.8150E-05  1.4559E-02  5.8150E-05  7.6983E-04  2.6339E-02                                                                                                                                                                                                                                                                                                                                                                                                                                                                                                                                                                                                            
       0.5000       0.5000      -5.5000  2.22245E+00   85.506  0.00000E+00  1.00000E+00  1.00059 10.4980  1.0015E-10  1.0015E-10  8.2877E-06  1.3848E-02  5.6713E-05  1.3848E-02  5.6713E-05  7.1964E-04  2.5311E-02                                                                                                                                                                                                                                                                                                                                                                                                                                                                                                                                                                                                            
       1.5000       0.5000      -5.5000  2.22245E+00   85.507  0.00000E+00  1.00000E+00  1.00059 10.4980  1.0015E-10  1.0015E-10  8.2878E-06  1.3849E-02  5.6715E-05  1.3849E-02  5.6715E-05  7.1971E-04  2.5313E-02                                                                                                                                                                                                                                                                                                                                                                                                                                                                                                                                                                                                            
       2.5000       0.5000      -5.5000  2.22245E+00   85.509  0.00000E+00  1.00000E+00  1.00059 10.4980  1.0015E-10  1.0015E-10  8.2881E-06  1.3850E-02  5.6718E-05  1.3850E-02  5.6718E-05  7.1982E-04  2.5315E-02                                                                                                                                                                                                                                                                                                                                                                                                                                                                                                                                                                                                            
       3.5000       0.5000      -5.5000  2.22245E+00   85.507  0.00000E+00  1.00000E+00  1.00059 10.4980  1.0015E-10  1.0015E-10  8.2878E-06  1.3849E-02  5.6715E-05  1.3849E-02  5.6715E-05  7.1971E-04  2.5313E-02                                                                                                                                                                                                                                                                                                                                                                                                                                                                                                                                                                                                            
       4.5000       0.5000      -5.5000  2.22245E+00   85.506  0.00000E+00  1.00000E+00  1.00059 10.4980  1.0015E-10  1.0015E-10  8.2877E-06  1.3848E-02  5.6713E-05  1.3848E-02  5.6713E-05  7.1964E-04  2.5311E-02                                                                                                                                                                                                                                                                                                                                                                                                                                                                                                                                                                                                            
       0.5000       0.5000      -4.5000  2.12918E+00   84.512  0.00000E+00  1.00000E+00  1.00056 10.4992  1.0014E-10  1.0014E-10  8.1805E-06  1.3170E-02  5.5316E-05  1.3170E-02  5.5317E-05  6.7248E-04  2.4323E-02                                                                                                                                                                                                                                                                                                                                                                                                                                                                                                                                                                                                            
       1.5000       0.5000      -4.5000  2.12829E+00   84.513  0.00000E+00  1.00000E+00  1.00056 10.4992  1.0014E-10  1.0014E-10  8.1806E-06  1.3170E-02  5.5318E-05  1.3170E-02  5.5318E-05  6.7253E-04  2.4324E-02                                                                                                                                                                                                                                                                                                                                                                                                                                                                                                                                                                                                            
       2.5000       0.5000      -4.5000  2.12753E+00   84.515  0.00000E+00  1.00000E+00  1.00056 10.4992  1.0014E-10  1.0014E-10  8.1807E-06  1.3171E-02  5.5320E-05  1.3171E-02  5.5320E-05  6.7259E-04  2.4325E-02                                                                                                                                                                                                                                                                                                                                                                                                                                                                                                                                                                                                            
       3.5000       0.5000      -4.5000  2.12829E+00   84.513  0.00000E+00  1.00000E+00  1.00056 10.4992  1.0014E-10  1.0014E-10  8.1806E-06  1.3170E-02  5.5318E-05  1.3170E-02  5.5318E-05  6.7253E-04  2.4324E-02                                                                                                                                                                                                                                                                                                                                                                                                                                                                                                                                                                                                            
       4.5000       0.5000      -4.5000  2.12918E+00   84.512  0.00000E+00  1.00000E+00  1.00056 10.4992  1.0014E-10  1.0014E-10  8.1805E-06  1.3170E-02  5.5316E-05  1.3170E-02  5.5317E-05  6.7248E-04  2.4323E-02                                                                                                                                                                                                                                                                                                                                                                                                                                                                                                                                                                                                            
       0.5000       0.5000      -3.5000  2.03805E+00   83.525  0.00000E+00  1.00000E+00  1.00053 10.5005  1.0014E-10  1.0014E-10  8.0785E-06  1.2532E-02  5.3978E-05  1.2532E-02  5.3978E-05  6.2879E-04  2.3387E-02                                                                                                                                                                                                                                                                                                                                                                                                                                                                                                                                                                                                            
       1.5000       0.5000      -3.5000  2.03511E+00   83.526  0.00000E+00  1.00000E+00  1.00053 10.5005  1.0014E-10  1.0014E-10  8.0785E-06  1.2532E-02  5.3978E-05  1.2532E-02  5.3978E-05  6.2881E-04  2.3387E-02                                                                                                                                                                                                                                                                                                                                                                                                                                                                                                                                                                                                            
       2.5000       0.5000      -3.5000  2.03256E+00   83.526  0.00000E+00  1.00000E+00  1.00053 10.5005  1.0014E-10  1.0014E-10  8.0785E-06  1.2532E-02  5.3979E-05  1.2532E-02  5.3979E-05  6.2882E-04  2.3388E-02                                                                                                                                                                                                                                                                                                                                                                                                                                                                                                                                                                                                            
       3.5000       0.5000      -3.5000  2.03511E+00   83.526  0.00000E+00  1.00000E+00  1.00053 10.5005  1.0014E-10  1.0014E-10  8.0785E-06  1.2532E-02  5.3978E-05  1.2532E-02  5.3978E-05  6.2881E-04  2.3387E-02                                                                                                                                                                                                                                                                                                                                                                                                                                                                                                                                                                                                            
       4.5000       0.5000      -3.5000  2.03805E+00   83.525  0.00000E+00  1.00000E+00  1.00053 10.5005  1.0014E-10  1.0014E-10  8.0785E-06  1.2532E-02  5.3978E-05  1.2532E-02  5.3978E-05  6.2879E-04  2.3387E-02                                                                                                                                                                                                                                                                                                                                                                                                                                                                                                                                                                                                            