Title="TOUGHREACT V3.30-OMP: Aqueous Total & Species Concentrations in mol/kg h2o, Surface & Exchanged Species in mol/kg h2o, Dry blocks in mol/L medium"                                                                                                                                                                                                                                                                                                                                                                                                                                                                                                                                                                                                                                                                       
Variables= "X(m)"   "Y(m)"   "Z(m)"   "P(bar)"     "T(C)"   "SatGas"   "SatLiq"     "aH2O"       "pH"        "t_na+"        "t_cl-"      "t_hco3-"       "t_ca+2"      "t_so4-2"       "t_mg+2"       "t_ba+2"       "t_al+3"     "t_h4sio4"                                                                                                                                                                                                                                                                                                                                                                                                                                                                                                                                                                                    
Zone T= "3.16887907E+01 yr" I=      5J=      5K=     10F=Point 
       0.5000       0.5000      -9.5000  2.58793E+00   85.009  0.00000E+00  1.00000E+00  1.00057 10.4990  1.0015E-10  1.0015E-10  8.2391E-06  1.3522E-02  5.6037E-05  1.3522E-02  5.6037E-05  6.9644E-04  2.4840E-02                                                                                                                                                                                                                                                                                                                                                                                                                                                                                                                                                                                                            
       1.5000       0.5000      -9.5000  2.58793E+00   85.009  0.00000E+00  1.00000E+00  1.00057 10.4990  1.0015E-10  1.0015E-10  8.2391E-06  1.3522E-02  5.6037E-05  1.3522E-02  5.6037E-05  6.9644E-04  2.4840E-02                                                                                                                                                                                                                                                                                                                                                                                                                                                                                                                                                                                                            
       2.5000       0.5000      -9.5000  2.58793E+00   85.009  0.00000E+00  1.00000E+00  1.00057 10.4990  1.0015E-10  1.0015E-10  8.2391E-06  1.3522E-02  5.6037E-05  1.3522E-02  5.6037E-05  6.9644E-04  2.4840E-02                                                                                                                                                                                                                                                                                                                                                                                                                                                                                                                                                                                                            
       3.5000       0.5000      -9.5000  2.58793E+00   85.009  0.00000E+00  1.00000E+00  1.00057 10.4990  1.0015E-10  1.0015E-10  8.2391E-06  1.3522E-02  5.6037E-05  1.3522E-02  5.6037E-05  6.9644E-04  2.4840E-02                                                                                                                                                                                                                                                                                                                                                                                                                                                                                                                                                                                                            
       4.5000       0.5000      -9.5000  2.58793E+00   85.009  0.00000E+00  1.00000E+00  1.00057 10.4990  1.0015E-10  1.0015E-10  8.2391E-06  1.3522E-02  5.6037E-05  1.3522E-02  5.6037E-05  6.9644E-04  2.4840E-02                                                                                                                                                                                                                                                                                                                                                                                                                                                                                                                                                                                                            
       0.5000       0.5000      -8.5000  2.49302E+00   85.009  0.00000E+00  1.00000E+00  1.00057 10.4989  1.0015E-10  1.0015E-10  8.2378E-06  1.3518E-02  5.6030E-05  1.3518E-02  5.6031E-05  6.9626E-04  2.4833E-02                                                                                                                                                                                                                                                                                                                                                                                                                                                                                                                                                                                                            
       1.5000       0.5000      -8.5000  2.49302E+00   85.009  0.00000E+00  1.00000E+00  1.00057 10.4989  1.0015E-10  1.0015E-10  8.2378E-06  1.3518E-02  5.6030E-05  1.3518E-02  5.6031E-05  6.9626E-04  2.4833E-02                                                                                                                                                                                                                                                                                                                                                                                                                                                                                                                                                                                                            
       2.5000       0.5000      -8.5000  2.49302E+00   85.009  0.00000E+00  1.00000E+00  1.00057 10.4989  1.0015E-10  1.0015E-10  8.2378E-06  1.3518E-02  5.6030E-05  1.3518E-02  5.6031E-05  6.9626E-04  2.4833E-02                                                                                                                                                                                                                                                                                                                                                                                                                                                                                                                                                                                                            
       3.5000       0.5000      -8.5000  2.49302E+00   85.009  0.00000E+00  1.00000E+00  1.00057 10.4989  1.0015E-10  1.0015E-10  8.2378E-06  1.3518E-02  5.6030E-05  1.3518E-02  5.6031E-05  6.9626E-04  2.4833E-02                                                                                                                                                                                                                                                                                                                                                                                                                                                                                                                                                                                                            
       4.5000       0.5000      -8.5000  2.49302E+00   85.009  0.00000E+00  1.00000E+00  1.00057 10.4989  1.0015E-10  1.0015E-10  8.2378E-06  1.3518E-02  5.6030E-05  1.3518E-02  5.6031E-05  6.9626E-04  2.4833E-02                                                                                                                                                                                                                                                                                                                                                                                                                                                                                                                                                                                                            
       0.5000       0.5000      -7.5000  2.39811E+00   85.009  0.00000E+00  1.00000E+00  1.00057 10.4988  1.0015E-10  1.0015E-10  8.2365E-06  1.3514E-02  5.6024E-05  1.3514E-02  5.6024E-05  6.9609E-04  2.4827E-02                                                                                                                                                                                                                                                                                                                                                                                                                                                                                                                                                                                                            
       1.5000       0.5000      -7.5000  2.39811E+00   85.009  0.00000E+00  1.00000E+00  1.00057 10.4988  1.0015E-10  1.0015E-10  8.2365E-06  1.3514E-02  5.6024E-05  1.3514E-02  5.6024E-05  6.9609E-04  2.4827E-02                                                                                                                                                                                                                                                                                                                                                                                                                                                                                                                                                                                                            
       2.5000       0.5000      -7.5000  2.39811E+00   85.009  0.00000E+00  1.00000E+00  1.00057 10.4988  1.0015E-10  1.0015E-10  8.2365E-06  1.3514E-02  5.6024E-05  1.3514E-02  5.6024E-05  6.9609E-04  2.4827E-02                                                                                                                                                                                                                                                                                                                                                                                                                                                                                                                                                                                                            
       3.5000       0.5000      -7.5000  2.39811E+00   85.009  0.00000E+00  1.00000E+00  1.00057 10.4988  1.0015E-10  1.0015E-10  8.2365E-06  1.3514E-02  5.6024E-05  1.3514E-02  5.6024E-05  6.9609E-04  2.4827E-02                                                                                                                                                                                                                                                                                                                                                                                                                                                                                                                                                                                                            
       4.5000       0.5000      -7.5000  2.39811E+00   85.009  0.00000E+00  1.00000E+00  1.00057 10.4988  1.0015E-10  1.0015E-10  8.2365E-06  1.3514E-02  5.6024E-05  1.3514E-02  5.6024E-05  6.9609E-04  2.4827E-02                                                                                                                                                                                                                                                                                                                                                                                                                                                                                                                                                                                                            
       0.5000       0.5000      -6.5000  2.30319E+00   85.009  0.00000E+00  1.00000E+00  1.00057 10.4987  1.0015E-10  1.0015E-10  8.2352E-06  1.3510E-02  5.6017E-05  1.3510E-02  5.6018E-05  6.9591E-04  2.4820E-02                                                                                                                                                                                                                                                                                                                                                                                                                                                                                                                                                                                                            
       1.5000       0.5000      -6.5000  2.30319E+00   85.009  0.00000E+00  1.00000E+00  1.00057 10.4987  1.0015E-10  1.0015E-10  8.2352E-06  1.3510E-02  5.6017E-05  1.3510E-02  5.6018E-05  6.9591E-04  2.4820E-02                                                                                                                                                                                                                                                                                                                                                                                                                                                                                                                                                                                                            
       2.5000       0.5000      -6.5000  2.30319E+00   85.009  0.00000E+00  1.00000E+00  1.00057 10.4987  1.0015E-10  1.0015E-10  8.2352E-06  1.3510E-02  5.6017E-05  1.3510E-02  5.6018E-05  6.9591E-04  2.4820E-02                                                                                                                                                                                                                                                                                                                                                                                                                                                                                                                                                                                                            
       3.5000       0.5000      -6.5000  2.30319E+00   85.009  0.00000E+00  1.00000E+00  1.00057 10.4987  1.0015E-10  1.0015E-10  8.2352E-06  1.3510E-02  5.6017E-05  1.3510E-02  5.6018E-05  6.9591E-04  2.4820E-02                                                                                                                                                                                                                                                                                                                                                                                                                                                                                                                                                                                                            
       4.5000       0.5000      -6.5000  2.30319E+00   85.009  0.00000E+00  1.00000E+00  1.00057 10.4987  1.0015E-10  1.0015E-10  8.2352E-06  1.3510E-02  5.6017E-05  1.3510E-02  5.6018E-05  6.9591E-04  2.4820E-02                                                                                                                                                                                                                                                                                                                                                                                                                                                                                                                                                                                                            
       0.5000       0.5000      -5.5000  2.20828E+00   85.009  0.00000E+00  1.00000E+00  1.00057 10.4986  1.0015E-10  1.0015E-10  8.2340E-06  1.3506E-02  5.6011E-05  1.3506E-02  5.6012E-05  6.9573E-04  2.4814E-02                                                                                                                                                                                                                                                                                                                                                                                                                                                                                                                                                                                                            
       1.5000       0.5000      -5.5000  2.20828E+00   85.009  0.00000E+00  1.00000E+00  1.00057 10.4986  1.0015E-10  1.0015E-10  8.2340E-06  1.3506E-02  5.6011E-05  1.3506E-02  5.6012E-05  6.9573E-04  2.4814E-02                                                                                                                                                                                                                                                                                                                                                                                                                                                                                                                                                                                                            
       2.5000       0.5000      -5.5000  2.20828E+00   85.009  0.00000E+00  1.00000E+00  1.00057 10.4986  1.0015E-10  1.0015E-10  8.2340E-06  1.3506E-02  5.6011E-05  1.3506E-02  5.6012E-05  6.9573E-04  2.4814E-02                                                                                                                                                                                                                                                                                                                                                                                                                                                                                                                                                                                                            
       3.5000       0.5000      -5.5000  2.20828E+00   85.009  0.00000E+00  1.00000E+00  1.00057 10.4986  1.0015E-10  1.0015E-10  8.2340E-06  1.3506E-02  5.6011E-05  1.3506E-02  5.6012E-05  6.9573E-04  2.4814E-02                                                                                                                                                                                                                                                                                                                                                                                                                                                                                                                                                                                                            
       4.5000       0.5000      -5.5000  2.20828E+00   85.009  0.00000E+00  1.00000E+00  1.00057 10.4986  1.0015E-10  1.0015E-10  8.2340E-06  1.3506E-02  5.6011E-05  1.3506E-02  5.6012E-05  6.9573E-04  2.4814E-02                                                                                                                                                                                                                                                                                                                                                                                                                                                                                                                                                                                                            
       0.5000       0.5000      -4.5000  2.11337E+00   85.009  0.00000E+00  1.00000E+00  1.00057 10.4985  1.0015E-10  1.0015E-10  8.2327E-06  1.3501E-02  5.6004E-05  1.3502E-02  5.6005E-05  6.9555E-04  2.4807E-02                                                                                                                                                                                                                                                                                                                                                                                                                                                                                                                                                                                                            
       1.5000       0.5000      -4.5000  2.11337E+00   85.009  0.00000E+00  1.00000E+00  1.00057 10.4985  1.0015E-10  1.0015E-10  8.2327E-06  1.3501E-02  5.6004E-05  1.3502E-02  5.6005E-05  6.9555E-04  2.4807E-02                                                                                                                                                                                                                                                                                                                                                                                                                                                                                                                                                                                                            
       2.5000       0.5000      -4.5000  2.11337E+00   85.009  0.00000E+00  1.00000E+00  1.00057 10.4985  1.0015E-10  1.0015E-10  8.2327E-06  1.3501E-02  5.6004E-05  1.3502E-02  5.6005E-05  6.9555E-04  2.4807E-02                                                                                                                                                                                                                                                                                                                                                                                                                                                                                                                                                                                                            
       3.5000       0.5000      -4.5000  2.11337E+00   85.009  0.00000E+00  1.00000E+00  1.00057 10.4985  1.0015E-10  1.0015E-10  8.2327E-06  1.3501E-02  5.6004E-05  1.3502E-02  5.6005E-05  6.9555E-04  2.4807E-02                                                                                                                                                                                                                                                                                                                                                                                                                                                                                                                                                                                                            
       4.5000       0.5000      -4.5000  2.11337E+00   85.009  0.00000E+00  1.00000E+00  1.00057 10.4985  1.0015E-10  1.0015E-10  8.2327E-06  1.3501E-02  5.6004E-05  1.3502E-02  5.6005E-05  6.9555E-04  2.4807E-02                                                                                                                                                                                                                                                                                                                                                                                                                                                                                                                                                                                                            
       0.5000       0.5000      -3.5000  2.01845E+00   85.009  0.00000E+00  1.00000E+00  1.00057 10.4984  1.0015E-10  1.0015E-10  8.2315E-06  1.3497E-02  5.5998E-05  1.3498E-02  5.5999E-05  6.9538E-04  2.4801E-02                                                                                                                                                                                                                                                                                                                                                                                                                                                                                                                                                                                                            
       1.5000       0.5000      -3.5000  2.01845E+00   85.009  0.00000E+00  1.00000E+00  1.00057 10.4984  1.0015E-10  1.0015E-10  8.2315E-06  1.3497E-02  5.5998E-05  1.3498E-02  5.5999E-05  6.9538E-04  2.4801E-02                                                                                                                                                                                                                                                                                                                                                                                                                                                                                                                                                                                                            
       2.5000       0.5000      -3.5000  2.01845E+00   85.009  0.00000E+00  1.00000E+00  1.00057 10.4984  1.0015E-10  1.0015E-10  8.2315E-06  1.3497E-02  5.5998E-05  1.3498E-02  5.5999E-05  6.9538E-04  2.4801E-02                                                                                                                                                                                                                                                                                                                                                                                                                                                                                                                                                                                                            
       3.5000       0.5000      -3.5000  2.01845E+00   85.009  0.00000E+00  1.00000E+00  1.00057 10.4984  1.0015E-10  1.0015E-10  8.2315E-06  1.3497E-02  5.5998E-05  1.3498E-02  5.5999E-05  6.9538E-04  2.4801E-02                                                                                                                                                                                                                                                                                                                                                                                                                                                                                                                                                                                                            
       4.5000       0.5000      -3.5000  2.01845E+00   85.009  0.00000E+00  1.00000E+00  1.00057 10.4984  1.0015E-10  1.0015E-10  8.2315E-06  1.3497E-02  5.5998E-05  1.3498E-02  5.5999E-05  6.9538E-04  2.4801E-02                                                                                                                                                                                                                                                                                                                                                                                                                                                                                                                                                                                                            