Title="TOUGHREACT V3.30-OMP: Aqueous Total & Species Concentrations in mol/kg h2o, Surface & Exchanged Species in mol/kg h2o, Dry blocks in mol/L medium"                                                                                                                                                                                                                                                                                                                                                                                                                                                                                                                                                                                                                                                                       
Variables= "X(m)"   "Y(m)"   "Z(m)"   "P(bar)"     "T(C)"   "SatGas"   "SatLiq"     "aH2O"       "pH"        "t_na+"        "t_cl-"      "t_hco3-"       "t_ca+2"      "t_so4-2"       "t_mg+2"       "t_ba+2"       "t_al+3"     "t_h4sio4"                                                                                                                                                                                                                                                                                                                                                                                                                                                                                                                                                                                    
Zone T= "6.33775814E+03 yr" I=      5J=      5K=     10F=Point 
       0.5000       0.5000      -9.5000  2.59222E+00   85.009  0.00000E+00  1.00000E+00  1.00057 10.4993  1.0015E-10  1.0014E-10  8.2353E-06  1.3498E-02  5.5947E-05  1.3522E-02  5.6085E-05  6.9680E-04  2.4853E-02                                                                                                                                                                                                                                                                                                                                                                                                                                                                                                                                                                                                            
       1.5000       0.5000      -9.5000  2.59222E+00   85.009  0.00000E+00  1.00000E+00  1.00057 10.4993  1.0015E-10  1.0014E-10  8.2353E-06  1.3498E-02  5.5947E-05  1.3522E-02  5.6085E-05  6.9680E-04  2.4853E-02                                                                                                                                                                                                                                                                                                                                                                                                                                                                                                                                                                                                            
       2.5000       0.5000      -9.5000  2.59222E+00   85.009  0.00000E+00  1.00000E+00  1.00057 10.4993  1.0015E-10  1.0014E-10  8.2353E-06  1.3498E-02  5.5947E-05  1.3522E-02  5.6085E-05  6.9680E-04  2.4853E-02                                                                                                                                                                                                                                                                                                                                                                                                                                                                                                                                                                                                            
       3.5000       0.5000      -9.5000  2.59222E+00   85.009  0.00000E+00  1.00000E+00  1.00057 10.4993  1.0015E-10  1.0014E-10  8.2353E-06  1.3498E-02  5.5947E-05  1.3522E-02  5.6085E-05  6.9680E-04  2.4853E-02                                                                                                                                                                                                                                                                                                                                                                                                                                                                                                                                                                                                            
       4.5000       0.5000      -9.5000  2.59222E+00   85.009  0.00000E+00  1.00000E+00  1.00057 10.4993  1.0015E-10  1.0014E-10  8.2353E-06  1.3498E-02  5.5947E-05  1.3522E-02  5.6085E-05  6.9680E-04  2.4853E-02                                                                                                                                                                                                                                                                                                                                                                                                                                                                                                                                                                                                            
       0.5000       0.5000      -8.5000  2.49731E+00   85.009  0.00000E+00  1.00000E+00  1.00057 10.4992  1.0015E-10  1.0015E-10  8.2339E-06  1.3494E-02  5.5938E-05  1.3518E-02  5.6080E-05  6.9663E-04  2.4846E-02                                                                                                                                                                                                                                                                                                                                                                                                                                                                                                                                                                                                            
       1.5000       0.5000      -8.5000  2.49731E+00   85.009  0.00000E+00  1.00000E+00  1.00057 10.4992  1.0015E-10  1.0015E-10  8.2339E-06  1.3494E-02  5.5938E-05  1.3518E-02  5.6080E-05  6.9663E-04  2.4846E-02                                                                                                                                                                                                                                                                                                                                                                                                                                                                                                                                                                                                            
       2.5000       0.5000      -8.5000  2.49731E+00   85.009  0.00000E+00  1.00000E+00  1.00057 10.4992  1.0015E-10  1.0015E-10  8.2339E-06  1.3494E-02  5.5938E-05  1.3518E-02  5.6080E-05  6.9663E-04  2.4846E-02                                                                                                                                                                                                                                                                                                                                                                                                                                                                                                                                                                                                            
       3.5000       0.5000      -8.5000  2.49731E+00   85.009  0.00000E+00  1.00000E+00  1.00057 10.4992  1.0015E-10  1.0015E-10  8.2339E-06  1.3494E-02  5.5938E-05  1.3518E-02  5.6080E-05  6.9663E-04  2.4846E-02                                                                                                                                                                                                                                                                                                                                                                                                                                                                                                                                                                                                            
       4.5000       0.5000      -8.5000  2.49731E+00   85.009  0.00000E+00  1.00000E+00  1.00057 10.4992  1.0015E-10  1.0015E-10  8.2339E-06  1.3494E-02  5.5938E-05  1.3518E-02  5.6080E-05  6.9663E-04  2.4846E-02                                                                                                                                                                                                                                                                                                                                                                                                                                                                                                                                                                                                            
       0.5000       0.5000      -7.5000  2.40239E+00   85.009  0.00000E+00  1.00000E+00  1.00057 10.4991  1.0015E-10  1.0015E-10  8.2326E-06  1.3489E-02  5.5930E-05  1.3514E-02  5.6075E-05  6.9646E-04  2.4840E-02                                                                                                                                                                                                                                                                                                                                                                                                                                                                                                                                                                                                            
       1.5000       0.5000      -7.5000  2.40239E+00   85.009  0.00000E+00  1.00000E+00  1.00057 10.4991  1.0015E-10  1.0015E-10  8.2326E-06  1.3489E-02  5.5930E-05  1.3514E-02  5.6075E-05  6.9646E-04  2.4840E-02                                                                                                                                                                                                                                                                                                                                                                                                                                                                                                                                                                                                            
       2.5000       0.5000      -7.5000  2.40239E+00   85.009  0.00000E+00  1.00000E+00  1.00057 10.4991  1.0015E-10  1.0015E-10  8.2326E-06  1.3489E-02  5.5930E-05  1.3514E-02  5.6075E-05  6.9646E-04  2.4840E-02                                                                                                                                                                                                                                                                                                                                                                                                                                                                                                                                                                                                            
       3.5000       0.5000      -7.5000  2.40239E+00   85.009  0.00000E+00  1.00000E+00  1.00057 10.4991  1.0015E-10  1.0015E-10  8.2326E-06  1.3489E-02  5.5930E-05  1.3514E-02  5.6075E-05  6.9646E-04  2.4840E-02                                                                                                                                                                                                                                                                                                                                                                                                                                                                                                                                                                                                            
       4.5000       0.5000      -7.5000  2.40239E+00   85.009  0.00000E+00  1.00000E+00  1.00057 10.4991  1.0015E-10  1.0015E-10  8.2326E-06  1.3489E-02  5.5930E-05  1.3514E-02  5.6075E-05  6.9646E-04  2.4840E-02                                                                                                                                                                                                                                                                                                                                                                                                                                                                                                                                                                                                            
       0.5000       0.5000      -6.5000  2.30748E+00   85.009  0.00000E+00  1.00000E+00  1.00057 10.4990  1.0015E-10  1.0015E-10  8.2313E-06  1.3485E-02  5.5922E-05  1.3510E-02  5.6069E-05  6.9629E-04  2.4834E-02                                                                                                                                                                                                                                                                                                                                                                                                                                                                                                                                                                                                            
       1.5000       0.5000      -6.5000  2.30748E+00   85.009  0.00000E+00  1.00000E+00  1.00057 10.4990  1.0015E-10  1.0015E-10  8.2313E-06  1.3485E-02  5.5922E-05  1.3510E-02  5.6069E-05  6.9629E-04  2.4834E-02                                                                                                                                                                                                                                                                                                                                                                                                                                                                                                                                                                                                            
       2.5000       0.5000      -6.5000  2.30748E+00   85.009  0.00000E+00  1.00000E+00  1.00057 10.4990  1.0015E-10  1.0015E-10  8.2313E-06  1.3485E-02  5.5922E-05  1.3510E-02  5.6069E-05  6.9629E-04  2.4834E-02                                                                                                                                                                                                                                                                                                                                                                                                                                                                                                                                                                                                            
       3.5000       0.5000      -6.5000  2.30748E+00   85.009  0.00000E+00  1.00000E+00  1.00057 10.4990  1.0015E-10  1.0015E-10  8.2313E-06  1.3485E-02  5.5922E-05  1.3510E-02  5.6069E-05  6.9629E-04  2.4834E-02                                                                                                                                                                                                                                                                                                                                                                                                                                                                                                                                                                                                            
       4.5000       0.5000      -6.5000  2.30748E+00   85.009  0.00000E+00  1.00000E+00  1.00057 10.4990  1.0015E-10  1.0015E-10  8.2313E-06  1.3485E-02  5.5922E-05  1.3510E-02  5.6069E-05  6.9629E-04  2.4834E-02                                                                                                                                                                                                                                                                                                                                                                                                                                                                                                                                                                                                            
       0.5000       0.5000      -5.5000  2.21257E+00   85.009  0.00000E+00  1.00000E+00  1.00057 10.4989  1.0015E-10  1.0015E-10  8.2300E-06  1.3480E-02  5.5915E-05  1.3506E-02  5.6063E-05  6.9611E-04  2.4827E-02                                                                                                                                                                                                                                                                                                                                                                                                                                                                                                                                                                                                            
       1.5000       0.5000      -5.5000  2.21257E+00   85.009  0.00000E+00  1.00000E+00  1.00057 10.4989  1.0015E-10  1.0015E-10  8.2300E-06  1.3480E-02  5.5915E-05  1.3506E-02  5.6063E-05  6.9611E-04  2.4827E-02                                                                                                                                                                                                                                                                                                                                                                                                                                                                                                                                                                                                            
       2.5000       0.5000      -5.5000  2.21257E+00   85.009  0.00000E+00  1.00000E+00  1.00057 10.4989  1.0015E-10  1.0015E-10  8.2300E-06  1.3480E-02  5.5915E-05  1.3506E-02  5.6063E-05  6.9611E-04  2.4827E-02                                                                                                                                                                                                                                                                                                                                                                                                                                                                                                                                                                                                            
       3.5000       0.5000      -5.5000  2.21257E+00   85.009  0.00000E+00  1.00000E+00  1.00057 10.4989  1.0015E-10  1.0015E-10  8.2300E-06  1.3480E-02  5.5915E-05  1.3506E-02  5.6063E-05  6.9611E-04  2.4827E-02                                                                                                                                                                                                                                                                                                                                                                                                                                                                                                                                                                                                            
       4.5000       0.5000      -5.5000  2.21257E+00   85.009  0.00000E+00  1.00000E+00  1.00057 10.4989  1.0015E-10  1.0015E-10  8.2300E-06  1.3480E-02  5.5915E-05  1.3506E-02  5.6063E-05  6.9611E-04  2.4827E-02                                                                                                                                                                                                                                                                                                                                                                                                                                                                                                                                                                                                            
       0.5000       0.5000      -4.5000  2.11765E+00   85.009  0.00000E+00  1.00000E+00  1.00057 10.4988  1.0015E-10  1.0015E-10  8.2287E-06  1.3476E-02  5.5909E-05  1.3502E-02  5.6056E-05  6.9593E-04  2.4821E-02                                                                                                                                                                                                                                                                                                                                                                                                                                                                                                                                                                                                            
       1.5000       0.5000      -4.5000  2.11765E+00   85.009  0.00000E+00  1.00000E+00  1.00057 10.4988  1.0015E-10  1.0015E-10  8.2287E-06  1.3476E-02  5.5909E-05  1.3502E-02  5.6056E-05  6.9593E-04  2.4821E-02                                                                                                                                                                                                                                                                                                                                                                                                                                                                                                                                                                                                            
       2.5000       0.5000      -4.5000  2.11765E+00   85.009  0.00000E+00  1.00000E+00  1.00057 10.4988  1.0015E-10  1.0015E-10  8.2287E-06  1.3476E-02  5.5909E-05  1.3502E-02  5.6056E-05  6.9593E-04  2.4821E-02                                                                                                                                                                                                                                                                                                                                                                                                                                                                                                                                                                                                            
       3.5000       0.5000      -4.5000  2.11765E+00   85.009  0.00000E+00  1.00000E+00  1.00057 10.4988  1.0015E-10  1.0015E-10  8.2287E-06  1.3476E-02  5.5909E-05  1.3502E-02  5.6056E-05  6.9593E-04  2.4821E-02                                                                                                                                                                                                                                                                                                                                                                                                                                                                                                                                                                                                            
       4.5000       0.5000      -4.5000  2.11765E+00   85.009  0.00000E+00  1.00000E+00  1.00057 10.4988  1.0015E-10  1.0015E-10  8.2287E-06  1.3476E-02  5.5909E-05  1.3502E-02  5.6056E-05  6.9593E-04  2.4821E-02                                                                                                                                                                                                                                                                                                                                                                                                                                                                                                                                                                                                            
       0.5000       0.5000      -3.5000  2.02274E+00   85.009  0.00000E+00  1.00000E+00  1.00057 10.4987  1.0015E-10  1.0015E-10  8.2275E-06  1.3473E-02  5.5903E-05  1.3498E-02  5.6049E-05  6.9575E-04  2.4814E-02                                                                                                                                                                                                                                                                                                                                                                                                                                                                                                                                                                                                            
       1.5000       0.5000      -3.5000  2.02274E+00   85.009  0.00000E+00  1.00000E+00  1.00057 10.4987  1.0015E-10  1.0015E-10  8.2275E-06  1.3473E-02  5.5903E-05  1.3498E-02  5.6049E-05  6.9575E-04  2.4814E-02                                                                                                                                                                                                                                                                                                                                                                                                                                                                                                                                                                                                            
       2.5000       0.5000      -3.5000  2.02274E+00   85.009  0.00000E+00  1.00000E+00  1.00057 10.4987  1.0015E-10  1.0015E-10  8.2275E-06  1.3473E-02  5.5903E-05  1.3498E-02  5.6049E-05  6.9575E-04  2.4814E-02                                                                                                                                                                                                                                                                                                                                                                                                                                                                                                                                                                                                            
       3.5000       0.5000      -3.5000  2.02274E+00   85.009  0.00000E+00  1.00000E+00  1.00057 10.4987  1.0015E-10  1.0015E-10  8.2275E-06  1.3473E-02  5.5903E-05  1.3498E-02  5.6049E-05  6.9575E-04  2.4814E-02                                                                                                                                                                                                                                                                                                                                                                                                                                                                                                                                                                                                            
       4.5000       0.5000      -3.5000  2.02274E+00   85.009  0.00000E+00  1.00000E+00  1.00057 10.4987  1.0015E-10  1.0015E-10  8.2275E-06  1.3473E-02  5.5903E-05  1.3498E-02  5.6049E-05  6.9575E-04  2.4814E-02                                                                                                                                                                                                                                                                                                                                                                                                                                                                                                                                                                                                            