Title="TOUGHREACT V3.30-OMP: Aqueous Total & Species Concentrations in mol/kg h2o, Surface & Exchanged Species in mol/kg h2o, Dry blocks in mol/L medium"                                                                                                                                                                                                                                                                                                                                                                                                                                                                                                                                                                                                                                                                       
Variables= "X(m)"   "Y(m)"   "Z(m)"   "P(bar)"     "T(C)"   "SatGas"   "SatLiq"     "aH2O"       "pH"        "t_na+"        "t_cl-"      "t_hco3-"       "t_ca+2"      "t_so4-2"       "t_mg+2"       "t_ba+2"       "t_al+3"     "t_h4sio4"                                                                                                                                                                                                                                                                                                                                                                                                                                                                                                                                                                                    
Zone T= "3.16887907E-02 yr" I=      5J=      5K=     10F=Point 
       0.5000       0.5000      -9.5000  2.59985E+00   88.454  0.00000E+00  1.00000E+00  1.00069 10.4958  1.0018E-10  1.0018E-10  8.6324E-06  1.6101E-02  6.1172E-05  1.6101E-02  6.1172E-05  8.8073E-04  2.8542E-02                                                                                                                                                                                                                                                                                                                                                                                                                                                                                                                                                                                                            
       1.5000       0.5000      -9.5000  2.59985E+00   88.463  0.00000E+00  1.00000E+00  1.00069 10.4958  1.0018E-10  1.0018E-10  8.6334E-06  1.6108E-02  6.1185E-05  1.6108E-02  6.1185E-05  8.8124E-04  2.8552E-02                                                                                                                                                                                                                                                                                                                                                                                                                                                                                                                                                                                                            
       2.5000       0.5000      -9.5000  2.59985E+00   88.481  0.00000E+00  1.00000E+00  1.00069 10.4958  1.0018E-10  1.0018E-10  8.6356E-06  1.6123E-02  6.1214E-05  1.6123E-02  6.1214E-05  8.8235E-04  2.8573E-02                                                                                                                                                                                                                                                                                                                                                                                                                                                                                                                                                                                                            
       3.5000       0.5000      -9.5000  2.59985E+00   88.463  0.00000E+00  1.00000E+00  1.00069 10.4958  1.0018E-10  1.0018E-10  8.6334E-06  1.6108E-02  6.1185E-05  1.6108E-02  6.1185E-05  8.8124E-04  2.8552E-02                                                                                                                                                                                                                                                                                                                                                                                                                                                                                                                                                                                                            
       4.5000       0.5000      -9.5000  2.59985E+00   88.454  0.00000E+00  1.00000E+00  1.00069 10.4958  1.0018E-10  1.0018E-10  8.6324E-06  1.6101E-02  6.1172E-05  1.6101E-02  6.1172E-05  8.8073E-04  2.8542E-02                                                                                                                                                                                                                                                                                                                                                                                                                                                                                                                                                                                                            
       0.5000       0.5000      -8.5000  2.50515E+00   88.030  0.00000E+00  1.00000E+00  1.00067 10.4960  1.0017E-10  1.0017E-10  8.5799E-06  1.5751E-02  6.0497E-05  1.5751E-02  6.0497E-05  8.5537E-04  2.8046E-02                                                                                                                                                                                                                                                                                                                                                                                                                                                                                                                                                                                                            
       1.5000       0.5000      -8.5000  2.50515E+00   88.036  0.00000E+00  1.00000E+00  1.00067 10.4960  1.0017E-10  1.0017E-10  8.5807E-06  1.5756E-02  6.0507E-05  1.5756E-02  6.0507E-05  8.5573E-04  2.8053E-02                                                                                                                                                                                                                                                                                                                                                                                                                                                                                                                                                                                                            
       2.5000       0.5000      -8.5000  2.50515E+00   88.050  0.00000E+00  1.00000E+00  1.00067 10.4960  1.0017E-10  1.0017E-10  8.5822E-06  1.5767E-02  6.0527E-05  1.5767E-02  6.0527E-05  8.5650E-04  2.8068E-02                                                                                                                                                                                                                                                                                                                                                                                                                                                                                                                                                                                                            
       3.5000       0.5000      -8.5000  2.50515E+00   88.036  0.00000E+00  1.00000E+00  1.00067 10.4960  1.0017E-10  1.0017E-10  8.5807E-06  1.5756E-02  6.0507E-05  1.5756E-02  6.0507E-05  8.5573E-04  2.8053E-02                                                                                                                                                                                                                                                                                                                                                                                                                                                                                                                                                                                                            
       4.5000       0.5000      -8.5000  2.50515E+00   88.030  0.00000E+00  1.00000E+00  1.00067 10.4960  1.0017E-10  1.0017E-10  8.5799E-06  1.5751E-02  6.0497E-05  1.5751E-02  6.0497E-05  8.5537E-04  2.8046E-02                                                                                                                                                                                                                                                                                                                                                                                                                                                                                                                                                                                                            
       0.5000       0.5000      -7.5000  2.41041E+00   87.313  0.00000E+00  1.00000E+00  1.00065 10.4964  1.0017E-10  1.0017E-10  8.4939E-06  1.5182E-02  5.9385E-05  1.5182E-02  5.9385E-05  8.1429E-04  2.7233E-02                                                                                                                                                                                                                                                                                                                                                                                                                                                                                                                                                                                                            
       1.5000       0.5000      -7.5000  2.41041E+00   87.316  0.00000E+00  1.00000E+00  1.00065 10.4964  1.0017E-10  1.0017E-10  8.4943E-06  1.5185E-02  5.9390E-05  1.5185E-02  5.9390E-05  8.1450E-04  2.7237E-02                                                                                                                                                                                                                                                                                                                                                                                                                                                                                                                                                                                                            
       2.5000       0.5000      -7.5000  2.41041E+00   87.324  0.00000E+00  1.00000E+00  1.00065 10.4964  1.0017E-10  1.0017E-10  8.4952E-06  1.5191E-02  5.9402E-05  1.5191E-02  5.9402E-05  8.1491E-04  2.7245E-02                                                                                                                                                                                                                                                                                                                                                                                                                                                                                                                                                                                                            
       3.5000       0.5000      -7.5000  2.41041E+00   87.316  0.00000E+00  1.00000E+00  1.00065 10.4964  1.0017E-10  1.0017E-10  8.4943E-06  1.5185E-02  5.9390E-05  1.5185E-02  5.9390E-05  8.1450E-04  2.7237E-02                                                                                                                                                                                                                                                                                                                                                                                                                                                                                                                                                                                                            
       4.5000       0.5000      -7.5000  2.41041E+00   87.313  0.00000E+00  1.00000E+00  1.00065 10.4964  1.0017E-10  1.0017E-10  8.4939E-06  1.5182E-02  5.9385E-05  1.5182E-02  5.9385E-05  8.1429E-04  2.7233E-02                                                                                                                                                                                                                                                                                                                                                                                                                                                                                                                                                                                                            
       0.5000       0.5000      -6.5000  2.31561E+00   86.437  0.00000E+00  1.00000E+00  1.00062 10.4971  1.0016E-10  1.0016E-10  8.3921E-06  1.4518E-02  5.8068E-05  1.4518E-02  5.8068E-05  7.6691E-04  2.6280E-02                                                                                                                                                                                                                                                                                                                                                                                                                                                                                                                                                                                                            
       1.5000       0.5000      -6.5000  2.31561E+00   86.439  0.00000E+00  1.00000E+00  1.00062 10.4971  1.0016E-10  1.0016E-10  8.3924E-06  1.4520E-02  5.8071E-05  1.4520E-02  5.8071E-05  7.6702E-04  2.6283E-02                                                                                                                                                                                                                                                                                                                                                                                                                                                                                                                                                                                                            
       2.5000       0.5000      -6.5000  2.31561E+00   86.442  0.00000E+00  1.00000E+00  1.00062 10.4971  1.0016E-10  1.0016E-10  8.3928E-06  1.4523E-02  5.8076E-05  1.4523E-02  5.8076E-05  7.6721E-04  2.6286E-02                                                                                                                                                                                                                                                                                                                                                                                                                                                                                                                                                                                                            
       3.5000       0.5000      -6.5000  2.31561E+00   86.439  0.00000E+00  1.00000E+00  1.00062 10.4971  1.0016E-10  1.0016E-10  8.3924E-06  1.4520E-02  5.8071E-05  1.4520E-02  5.8071E-05  7.6702E-04  2.6283E-02                                                                                                                                                                                                                                                                                                                                                                                                                                                                                                                                                                                                            
       4.5000       0.5000      -6.5000  2.31561E+00   86.437  0.00000E+00  1.00000E+00  1.00062 10.4971  1.0016E-10  1.0016E-10  8.3921E-06  1.4518E-02  5.8068E-05  1.4518E-02  5.8068E-05  7.6691E-04  2.6280E-02                                                                                                                                                                                                                                                                                                                                                                                                                                                                                                                                                                                                            
       0.5000       0.5000      -5.5000  2.22076E+00   85.492  0.00000E+00  1.00000E+00  1.00059 10.4980  1.0015E-10  1.0015E-10  8.2861E-06  1.3838E-02  5.6693E-05  1.3838E-02  5.6693E-05  7.1894E-04  2.5297E-02                                                                                                                                                                                                                                                                                                                                                                                                                                                                                                                                                                                                            
       1.5000       0.5000      -5.5000  2.22076E+00   85.493  0.00000E+00  1.00000E+00  1.00059 10.4980  1.0015E-10  1.0015E-10  8.2862E-06  1.3839E-02  5.6694E-05  1.3839E-02  5.6694E-05  7.1899E-04  2.5298E-02                                                                                                                                                                                                                                                                                                                                                                                                                                                                                                                                                                                                            
       2.5000       0.5000      -5.5000  2.22076E+00   85.494  0.00000E+00  1.00000E+00  1.00059 10.4980  1.0015E-10  1.0015E-10  8.2864E-06  1.3839E-02  5.6696E-05  1.3839E-02  5.6696E-05  7.1905E-04  2.5299E-02                                                                                                                                                                                                                                                                                                                                                                                                                                                                                                                                                                                                            
       3.5000       0.5000      -5.5000  2.22076E+00   85.493  0.00000E+00  1.00000E+00  1.00059 10.4980  1.0015E-10  1.0015E-10  8.2862E-06  1.3839E-02  5.6694E-05  1.3839E-02  5.6694E-05  7.1899E-04  2.5298E-02                                                                                                                                                                                                                                                                                                                                                                                                                                                                                                                                                                                                            
       4.5000       0.5000      -5.5000  2.22076E+00   85.492  0.00000E+00  1.00000E+00  1.00059 10.4980  1.0015E-10  1.0015E-10  8.2861E-06  1.3838E-02  5.6693E-05  1.3838E-02  5.6693E-05  7.1894E-04  2.5297E-02                                                                                                                                                                                                                                                                                                                                                                                                                                                                                                                                                                                                            
       0.5000       0.5000      -4.5000  2.12730E+00   84.527  0.00000E+00  1.00000E+00  1.00056 10.4992  1.0014E-10  1.0014E-10  8.1821E-06  1.3180E-02  5.5338E-05  1.3180E-02  5.5338E-05  6.7318E-04  2.4338E-02                                                                                                                                                                                                                                                                                                                                                                                                                                                                                                                                                                                                            
       1.5000       0.5000      -4.5000  2.12652E+00   84.528  0.00000E+00  1.00000E+00  1.00056 10.4992  1.0014E-10  1.0014E-10  8.1821E-06  1.3180E-02  5.5338E-05  1.3180E-02  5.5338E-05  6.7319E-04  2.4338E-02                                                                                                                                                                                                                                                                                                                                                                                                                                                                                                                                                                                                            
       2.5000       0.5000      -4.5000  2.12585E+00   84.527  0.00000E+00  1.00000E+00  1.00056 10.4992  1.0014E-10  1.0014E-10  8.1820E-06  1.3180E-02  5.5337E-05  1.3180E-02  5.5337E-05  6.7317E-04  2.4338E-02                                                                                                                                                                                                                                                                                                                                                                                                                                                                                                                                                                                                            
       3.5000       0.5000      -4.5000  2.12652E+00   84.528  0.00000E+00  1.00000E+00  1.00056 10.4992  1.0014E-10  1.0014E-10  8.1821E-06  1.3180E-02  5.5338E-05  1.3180E-02  5.5338E-05  6.7319E-04  2.4338E-02                                                                                                                                                                                                                                                                                                                                                                                                                                                                                                                                                                                                            
       4.5000       0.5000      -4.5000  2.12730E+00   84.527  0.00000E+00  1.00000E+00  1.00056 10.4992  1.0014E-10  1.0014E-10  8.1821E-06  1.3180E-02  5.5338E-05  1.3180E-02  5.5338E-05  6.7318E-04  2.4338E-02                                                                                                                                                                                                                                                                                                                                                                                                                                                                                                                                                                                                            
       0.5000       0.5000      -3.5000  2.03572E+00   83.582  0.00000E+00  1.00000E+00  1.00053 10.5005  1.0014E-10  1.0014E-10  8.0841E-06  1.2567E-02  5.4053E-05  1.2567E-02  5.4053E-05  6.3121E-04  2.3439E-02                                                                                                                                                                                                                                                                                                                                                                                                                                                                                                                                                                                                            
       1.5000       0.5000      -3.5000  2.03320E+00   83.581  0.00000E+00  1.00000E+00  1.00053 10.5005  1.0014E-10  1.0014E-10  8.0840E-06  1.2567E-02  5.4052E-05  1.2567E-02  5.4052E-05  6.3117E-04  2.3438E-02                                                                                                                                                                                                                                                                                                                                                                                                                                                                                                                                                                                                            
       2.5000       0.5000      -3.5000  2.03088E+00   83.579  0.00000E+00  1.00000E+00  1.00053 10.5005  1.0014E-10  1.0014E-10  8.0837E-06  1.2565E-02  5.4048E-05  1.2565E-02  5.4048E-05  6.3106E-04  2.3436E-02                                                                                                                                                                                                                                                                                                                                                                                                                                                                                                                                                                                                            
       3.5000       0.5000      -3.5000  2.03320E+00   83.581  0.00000E+00  1.00000E+00  1.00053 10.5005  1.0014E-10  1.0014E-10  8.0840E-06  1.2567E-02  5.4052E-05  1.2567E-02  5.4052E-05  6.3117E-04  2.3438E-02                                                                                                                                                                                                                                                                                                                                                                                                                                                                                                                                                                                                            
       4.5000       0.5000      -3.5000  2.03572E+00   83.582  0.00000E+00  1.00000E+00  1.00053 10.5005  1.0014E-10  1.0014E-10  8.0841E-06  1.2567E-02  5.4053E-05  1.2567E-02  5.4053E-05  6.3121E-04  2.3439E-02                                                                                                                                                                                                                                                                                                                                                                                                                                                                                                                                                                                                            