Title="TOUGHREACT V3.30-OMP flowdata.tec: P,T,SAT & Other Variables"                                                                                                                                                                                                                                                                                                                                                                                                                                                                                                                                                                                                                                                                                                                                                            
Variables= "X(m)"     "Y(m)"      "Z(m)"       "P(Pa)"        "T(C)"      "SatGas"      "SatLiq"          "X1"          "X2"    "Pcap(Pa)"  "DGas_kg/m3"  "DLiq_kg/m3"    "Porosity"  "Perm_X(m2)"  "Perm_Y(m2)"  "Perm_Z(m2)"    "Krel_Gas"    "Krel_Liq"                                                                                                                                                                                                                                                                                                                                                                                                                                                                                                                                                                      
Zone T= "1.00000000E+09 sec" I=     9 J=     9 K=     5 F=Point
  5.000000E+00  5.000000E+00 -5.050000E+01  1.388429E+06  2.991189E+01  0.000000E+00  1.000000E+00  1.000000E+00  0.000000E+00  0.000000E+00  3.022382E-02  9.963504E+02  1.999955E-01  1.100000E-17  1.100000E-17  1.100000E-17  0.000000E+00  1.000000E+00                                                                                                                                                                                                                                                                                                                                                                                                                                                                                                                                                                    
  1.500000E+01  5.000000E+00 -5.050000E+01  1.388429E+06  2.991188E+01  0.000000E+00  1.000000E+00  1.000000E+00  0.000000E+00  0.000000E+00  3.022379E-02  9.963505E+02  1.999955E-01  1.100000E-17  1.100000E-17  1.100000E-17  0.000000E+00  1.000000E+00                                                                                                                                                                                                                                                                                                                                                                                                                                                                                                                                                                    
  2.500000E+01  5.000000E+00 -5.050000E+01  1.388429E+06  2.991185E+01  0.000000E+00  1.000000E+00  1.000000E+00  0.000000E+00  0.000000E+00  3.022374E-02  9.963505E+02  1.999955E-01  1.100000E-17  1.100000E-17  1.100000E-17  0.000000E+00  1.000000E+00                                                                                                                                                                                                                                                                                                                                                                                                                                                                                                                                                                    
  3.500000E+01  5.000000E+00 -5.050000E+01  1.388429E+06  2.991181E+01  0.000000E+00  1.000000E+00  1.000000E+00  0.000000E+00  0.000000E+00  3.022368E-02  9.963505E+02  1.999955E-01  1.100000E-17  1.100000E-17  1.100000E-17  0.000000E+00  1.000000E+00                                                                                                                                                                                                                                                                                                                                                                                                                                                                                                                                                                    
  4.500000E+01  5.000000E+00 -5.050000E+01  1.388429E+06  2.991176E+01  0.000000E+00  1.000000E+00  1.000000E+00  0.000000E+00  0.000000E+00  3.022360E-02  9.963505E+02  1.999955E-01  1.100000E-17  1.100000E-17  1.100000E-17  0.000000E+00  1.000000E+00                                                                                                                                                                                                                                                                                                                                                                                                                                                                                                                                                                    
  5.500000E+01  5.000000E+00 -5.050000E+01  1.388429E+06  2.991171E+01  0.000000E+00  1.000000E+00  1.000000E+00  0.000000E+00  0.000000E+00  3.022353E-02  9.963505E+02  1.999955E-01  1.100000E-17  1.100000E-17  1.100000E-17  0.000000E+00  1.000000E+00                                                                                                                                                                                                                                                                                                                                                                                                                                                                                                                                                                    
  6.500000E+01  5.000000E+00 -5.050000E+01  1.388429E+06  2.991167E+01  0.000000E+00  1.000000E+00  1.000000E+00  0.000000E+00  0.000000E+00  3.022346E-02  9.963505E+02  1.999955E-01  1.100000E-17  1.100000E-17  1.100000E-17  0.000000E+00  1.000000E+00                                                                                                                                                                                                                                                                                                                                                                                                                                                                                                                                                                    
  7.500000E+01  5.000000E+00 -5.050000E+01  1.388429E+06  2.991164E+01  0.000000E+00  1.000000E+00  1.000000E+00  0.000000E+00  0.000000E+00  3.022341E-02  9.963505E+02  1.999955E-01  1.100000E-17  1.100000E-17  1.100000E-17  0.000000E+00  1.000000E+00                                                                                                                                                                                                                                                                                                                                                                                                                                                                                                                                                                    
  8.500000E+01  5.000000E+00 -5.050000E+01  1.388429E+06  2.991163E+01  0.000000E+00  1.000000E+00  1.000000E+00  0.000000E+00  0.000000E+00  3.022338E-02  9.963505E+02  1.999955E-01  1.100000E-17  1.100000E-17  1.100000E-17  0.000000E+00  1.000000E+00                                                                                                                                                                                                                                                                                                                                                                                                                                                                                                                                                                    
  5.000000E+00  5.000000E+00 -4.550000E+01  1.339609E+06  2.991188E+01  0.000000E+00  1.000000E+00  1.000000E+00  0.000000E+00  0.000000E+00  3.022380E-02  9.963288E+02  1.999965E-01  1.100000E-13  1.100000E-13  1.100000E-15  0.000000E+00  1.000000E+00                                                                                                                                                                                                                                                                                                                                                                                                                                                                                                                                                                    
  1.500000E+01  5.000000E+00 -4.550000E+01  1.339609E+06  2.991187E+01  0.000000E+00  1.000000E+00  1.000000E+00  0.000000E+00  0.000000E+00  3.022377E-02  9.963288E+02  1.999965E-01  1.100000E-13  1.100000E-13  1.100000E-15  0.000000E+00  1.000000E+00                                                                                                                                                                                                                                                                                                                                                                                                                                                                                                                                                                    
  2.500000E+01  5.000000E+00 -4.550000E+01  1.339609E+06  2.991184E+01  0.000000E+00  1.000000E+00  1.000000E+00  0.000000E+00  0.000000E+00  3.022373E-02  9.963288E+02  1.999965E-01  1.100000E-13  1.100000E-13  1.100000E-15  0.000000E+00  1.000000E+00                                                                                                                                                                                                                                                                                                                                                                                                                                                                                                                                                                    
  3.500000E+01  5.000000E+00 -4.550000E+01  1.339609E+06  2.991180E+01  0.000000E+00  1.000000E+00  1.000000E+00  0.000000E+00  0.000000E+00  3.022366E-02  9.963289E+02  1.999965E-01  1.100000E-13  1.100000E-13  1.100000E-15  0.000000E+00  1.000000E+00                                                                                                                                                                                                                                                                                                                                                                                                                                                                                                                                                                    
  4.500000E+01  5.000000E+00 -4.550000E+01  1.339609E+06  2.991175E+01  0.000000E+00  1.000000E+00  1.000000E+00  0.000000E+00  0.000000E+00  3.022358E-02  9.963289E+02  1.999965E-01  1.100000E-13  1.100000E-13  1.100000E-15  0.000000E+00  1.000000E+00                                                                                                                                                                                                                                                                                                                                                                                                                                                                                                                                                                    
  5.500000E+01  5.000000E+00 -4.550000E+01  1.339609E+06  2.991170E+01  0.000000E+00  1.000000E+00  1.000000E+00  0.000000E+00  0.000000E+00  3.022351E-02  9.963289E+02  1.999965E-01  1.100000E-13  1.100000E-13  1.100000E-15  0.000000E+00  1.000000E+00                                                                                                                                                                                                                                                                                                                                                                                                                                                                                                                                                                    
  6.500000E+01  5.000000E+00 -4.550000E+01  1.339609E+06  2.991166E+01  0.000000E+00  1.000000E+00  1.000000E+00  0.000000E+00  0.000000E+00  3.022344E-02  9.963289E+02  1.999965E-01  1.100000E-13  1.100000E-13  1.100000E-15  0.000000E+00  1.000000E+00                                                                                                                                                                                                                                                                                                                                                                                                                                                                                                                                                                    
  7.500000E+01  5.000000E+00 -4.550000E+01  1.339609E+06  2.991163E+01  0.000000E+00  1.000000E+00  1.000000E+00  0.000000E+00  0.000000E+00  3.022339E-02  9.963289E+02  1.999965E-01  1.100000E-13  1.100000E-13  1.100000E-15  0.000000E+00  1.000000E+00                                                                                                                                                                                                                                                                                                                                                                                                                                                                                                                                                                    
  8.500000E+01  5.000000E+00 -4.550000E+01  1.339609E+06  2.991162E+01  0.000000E+00  1.000000E+00  1.000000E+00  0.000000E+00  0.000000E+00  3.022337E-02  9.963289E+02  1.999965E-01  1.100000E-13  1.100000E-13  1.100000E-15  0.000000E+00  1.000000E+00                                                                                                                                                                                                                                                                                                                                                                                                                                                                                                                                                                    
  5.000000E+00  5.000000E+00 -3.000000E+01  1.188271E+06  2.991184E+01  0.000000E+00  1.000000E+00  1.000000E+00  0.000000E+00  0.000000E+00  3.022374E-02  9.962618E+02  9.999980E-02  1.100000E-12  1.100000E-12  1.100000E-12  0.000000E+00  1.000000E+00                                                                                                                                                                                                                                                                                                                                                                                                                                                                                                                                                                    
  1.500000E+01  5.000000E+00 -3.000000E+01  1.188271E+06  2.991183E+01  0.000000E+00  1.000000E+00  1.000000E+00  0.000000E+00  0.000000E+00  3.022371E-02  9.962618E+02  9.999980E-02  1.100000E-12  1.100000E-12  1.100000E-12  0.000000E+00  1.000000E+00                                                                                                                                                                                                                                                                                                                                                                                                                                                                                                                                                                    
  2.500000E+01  5.000000E+00 -3.000000E+01  1.188271E+06  2.991180E+01  0.000000E+00  1.000000E+00  1.000000E+00  0.000000E+00  0.000000E+00  3.022366E-02  9.962618E+02  9.999980E-02  1.100000E-12  1.100000E-12  1.100000E-12  0.000000E+00  1.000000E+00                                                                                                                                                                                                                                                                                                                                                                                                                                                                                                                                                                    
  3.500000E+01  5.000000E+00 -3.000000E+01  1.188271E+06  2.991176E+01  0.000000E+00  1.000000E+00  1.000000E+00  0.000000E+00  0.000000E+00  3.022360E-02  9.962618E+02  9.999980E-02  1.100000E-12  1.100000E-12  1.100000E-12  0.000000E+00  1.000000E+00                                                                                                                                                                                                                                                                                                                                                                                                                                                                                                                                                                    
  4.500000E+01  5.000000E+00 -3.000000E+01  1.188271E+06  2.991171E+01  0.000000E+00  1.000000E+00  1.000000E+00  0.000000E+00  0.000000E+00  3.022352E-02  9.962619E+02  9.999980E-02  1.100000E-12  1.100000E-12  1.100000E-12  0.000000E+00  1.000000E+00                                                                                                                                                                                                                                                                                                                                                                                                                                                                                                                                                                    
  5.500000E+01  5.000000E+00 -3.000000E+01  1.188271E+06  2.991167E+01  0.000000E+00  1.000000E+00  1.000000E+00  0.000000E+00  0.000000E+00  3.022345E-02  9.962619E+02  9.999980E-02  1.100000E-12  1.100000E-12  1.100000E-12  0.000000E+00  1.000000E+00                                                                                                                                                                                                                                                                                                                                                                                                                                                                                                                                                                    
  6.500000E+01  5.000000E+00 -3.000000E+01  1.188271E+06  2.991163E+01  0.000000E+00  1.000000E+00  1.000000E+00  0.000000E+00  0.000000E+00  3.022338E-02  9.962619E+02  9.999980E-02  1.100000E-12  1.100000E-12  1.100000E-12  0.000000E+00  1.000000E+00                                                                                                                                                                                                                                                                                                                                                                                                                                                                                                                                                                    
  7.500000E+01  5.000000E+00 -3.000000E+01  1.188271E+06  2.991160E+01  0.000000E+00  1.000000E+00  1.000000E+00  0.000000E+00  0.000000E+00  3.022334E-02  9.962619E+02  9.999980E-02  1.100000E-12  1.100000E-12  1.100000E-12  0.000000E+00  1.000000E+00                                                                                                                                                                                                                                                                                                                                                                                                                                                                                                                                                                    
  8.500000E+01  5.000000E+00 -3.000000E+01  1.188271E+06  2.991158E+01  0.000000E+00  1.000000E+00  1.000000E+00  0.000000E+00  0.000000E+00  3.022331E-02  9.962619E+02  9.999980E-02  1.100000E-12  1.100000E-12  1.100000E-12  0.000000E+00  1.000000E+00                                                                                                                                                                                                                                                                                                                                                                                                                                                                                                                                                                    
  5.000000E+00  5.000000E+00 -1.000000E+01  9.930125E+05  2.991176E+01  0.000000E+00  1.000000E+00  1.000000E+00  0.000000E+00  0.000000E+00  3.022361E-02  9.961753E+02  1.000018E-01  1.100000E-12  1.100000E-12  1.100000E-12  0.000000E+00  1.000000E+00                                                                                                                                                                                                                                                                                                                                                                                                                                                                                                                                                                    
  1.500000E+01  5.000000E+00 -1.000000E+01  9.930125E+05  2.991175E+01  0.000000E+00  1.000000E+00  1.000000E+00  0.000000E+00  0.000000E+00  3.022358E-02  9.961753E+02  1.000018E-01  1.100000E-12  1.100000E-12  1.100000E-12  0.000000E+00  1.000000E+00                                                                                                                                                                                                                                                                                                                                                                                                                                                                                                                                                                    
  2.500000E+01  5.000000E+00 -1.000000E+01  9.930125E+05  2.991172E+01  0.000000E+00  1.000000E+00  1.000000E+00  0.000000E+00  0.000000E+00  3.022354E-02  9.961753E+02  1.000018E-01  1.100000E-12  1.100000E-12  1.100000E-12  0.000000E+00  1.000000E+00                                                                                                                                                                                                                                                                                                                                                                                                                                                                                                                                                                    
  3.500000E+01  5.000000E+00 -1.000000E+01  9.930125E+05  2.991168E+01  0.000000E+00  1.000000E+00  1.000000E+00  0.000000E+00  0.000000E+00  3.022347E-02  9.961753E+02  1.000018E-01  1.100000E-12  1.100000E-12  1.100000E-12  0.000000E+00  1.000000E+00                                                                                                                                                                                                                                                                                                                                                                                                                                                                                                                                                                    
  4.500000E+01  5.000000E+00 -1.000000E+01  9.930125E+05  2.991164E+01  0.000000E+00  1.000000E+00  1.000000E+00  0.000000E+00  0.000000E+00  3.022340E-02  9.961754E+02  1.000018E-01  1.100000E-12  1.100000E-12  1.100000E-12  0.000000E+00  1.000000E+00                                                                                                                                                                                                                                                                                                                                                                                                                                                                                                                                                                    
  5.500000E+01  5.000000E+00 -1.000000E+01  9.930125E+05  2.991160E+01  0.000000E+00  1.000000E+00  1.000000E+00  0.000000E+00  0.000000E+00  3.022333E-02  9.961754E+02  1.000018E-01  1.100000E-12  1.100000E-12  1.100000E-12  0.000000E+00  1.000000E+00                                                                                                                                                                                                                                                                                                                                                                                                                                                                                                                                                                    
  6.500000E+01  5.000000E+00 -1.000000E+01  9.930125E+05  2.991156E+01  0.000000E+00  1.000000E+00  1.000000E+00  0.000000E+00  0.000000E+00  3.022327E-02  9.961754E+02  1.000018E-01  1.100000E-12  1.100000E-12  1.100000E-12  0.000000E+00  1.000000E+00                                                                                                                                                                                                                                                                                                                                                                                                                                                                                                                                                                    
  7.500000E+01  5.000000E+00 -1.000000E+01  9.930125E+05  2.991153E+01  0.000000E+00  1.000000E+00  1.000000E+00  0.000000E+00  0.000000E+00  3.022322E-02  9.961754E+02  1.000018E-01  1.100000E-12  1.100000E-12  1.100000E-12  0.000000E+00  1.000000E+00                                                                                                                                                                                                                                                                                                                                                                                                                                                                                                                                                                    