Title="TOUGHREACT V3.30-OMP flowdata.tec: P,T,SAT & Other Variables"                                                                                                                                                                                                                                                                                                                                                                                                                                                                                                                                                                                                                                                                                                                                                            
Variables= "X(m)"     "Y(m)"      "Z(m)"       "P(Pa)"        "T(C)"      "SatGas"      "SatLiq"          "X1"          "X2"    "Pcap(Pa)"  "DGas_kg/m3"  "DLiq_kg/m3"    "Porosity"  "Perm_X(m2)"  "Perm_Y(m2)"  "Perm_Z(m2)"    "Krel_Gas"    "Krel_Liq"                                                                                                                                                                                                                                                                                                                                                                                                                                                                                                                                                                      
Zone T= "3.15569000E+08 sec" I=     9 J=     9 K=     5 F=Point
  5.000000E+00  5.000000E+00 -5.050000E+01  1.471901E+06  3.212875E+01  0.000000E+00  1.000000E+00  1.000000E+00  0.000000E+00  0.000000E+00  3.404827E-02  9.956909E+02  2.000622E-01  1.100000E-17  1.100000E-17  1.100000E-17  0.000000E+00  1.000000E+00                                                                                                                                                                                                                                                                                                                                                                                                                                                                                                                                                                    
  1.500000E+01  5.000000E+00 -5.050000E+01  1.471901E+06  3.212838E+01  0.000000E+00  1.000000E+00  1.000000E+00  0.000000E+00  0.000000E+00  3.404760E-02  9.956910E+02  2.000622E-01  1.100000E-17  1.100000E-17  1.100000E-17  0.000000E+00  1.000000E+00                                                                                                                                                                                                                                                                                                                                                                                                                                                                                                                                                                    
  2.500000E+01  5.000000E+00 -5.050000E+01  1.471900E+06  3.212751E+01  0.000000E+00  1.000000E+00  1.000000E+00  0.000000E+00  0.000000E+00  3.404603E-02  9.956913E+02  2.000622E-01  1.100000E-17  1.100000E-17  1.100000E-17  0.000000E+00  1.000000E+00                                                                                                                                                                                                                                                                                                                                                                                                                                                                                                                                                                    
  3.500000E+01  5.000000E+00 -5.050000E+01  1.471899E+06  3.212588E+01  0.000000E+00  1.000000E+00  1.000000E+00  0.000000E+00  0.000000E+00  3.404306E-02  9.956918E+02  2.000622E-01  1.100000E-17  1.100000E-17  1.100000E-17  0.000000E+00  1.000000E+00                                                                                                                                                                                                                                                                                                                                                                                                                                                                                                                                                                    
  4.500000E+01  5.000000E+00 -5.050000E+01  1.471895E+06  3.212307E+01  0.000000E+00  1.000000E+00  1.000000E+00  0.000000E+00  0.000000E+00  3.403797E-02  9.956927E+02  2.000622E-01  1.100000E-17  1.100000E-17  1.100000E-17  0.000000E+00  1.000000E+00                                                                                                                                                                                                                                                                                                                                                                                                                                                                                                                                                                    
  5.500000E+01  5.000000E+00 -5.050000E+01  1.471886E+06  3.211861E+01  0.000000E+00  1.000000E+00  1.000000E+00  0.000000E+00  0.000000E+00  3.402988E-02  9.956942E+02  2.000622E-01  1.100000E-17  1.100000E-17  1.100000E-17  0.000000E+00  1.000000E+00                                                                                                                                                                                                                                                                                                                                                                                                                                                                                                                                                                    
  6.500000E+01  5.000000E+00 -5.050000E+01  1.471850E+06  3.211209E+01  0.000000E+00  1.000000E+00  1.000000E+00  0.000000E+00  0.000000E+00  3.401805E-02  9.956963E+02  2.000621E-01  1.100000E-17  1.100000E-17  1.100000E-17  0.000000E+00  1.000000E+00                                                                                                                                                                                                                                                                                                                                                                                                                                                                                                                                                                    
  7.500000E+01  5.000000E+00 -5.050000E+01  1.471774E+06  3.210351E+01  0.000000E+00  1.000000E+00  1.000000E+00  0.000000E+00  0.000000E+00  3.400250E-02  9.956990E+02  3.000930E-01  1.100000E-10  1.100000E-10  1.100000E-10  0.000000E+00  1.000000E+00                                                                                                                                                                                                                                                                                                                                                                                                                                                                                                                                                                    
  8.500000E+01  5.000000E+00 -5.050000E+01  1.471841E+06  3.210605E+01  0.000000E+00  1.000000E+00  1.000000E+00  0.000000E+00  0.000000E+00  3.400711E-02  9.956982E+02  2.000620E-01  1.100000E-17  1.100000E-17  1.100000E-17  0.000000E+00  1.000000E+00                                                                                                                                                                                                                                                                                                                                                                                                                                                                                                                                                                    
  5.000000E+00  5.000000E+00 -4.550000E+01  1.422981E+06  3.177415E+01  0.000000E+00  1.000000E+00  1.000000E+00  0.000000E+00  0.000000E+00  3.341005E-02  9.957836E+02  2.000610E-01  1.100000E-13  1.100000E-13  1.100000E-15  0.000000E+00  1.000000E+00                                                                                                                                                                                                                                                                                                                                                                                                                                                                                                                                                                    
  1.500000E+01  5.000000E+00 -4.550000E+01  1.422981E+06  3.177379E+01  0.000000E+00  1.000000E+00  1.000000E+00  0.000000E+00  0.000000E+00  3.340940E-02  9.957837E+02  2.000610E-01  1.100000E-13  1.100000E-13  1.100000E-15  0.000000E+00  1.000000E+00                                                                                                                                                                                                                                                                                                                                                                                                                                                                                                                                                                    
  2.500000E+01  5.000000E+00 -4.550000E+01  1.422981E+06  3.177293E+01  0.000000E+00  1.000000E+00  1.000000E+00  0.000000E+00  0.000000E+00  3.340787E-02  9.957839E+02  2.000610E-01  1.100000E-13  1.100000E-13  1.100000E-15  0.000000E+00  1.000000E+00                                                                                                                                                                                                                                                                                                                                                                                                                                                                                                                                                                    
  3.500000E+01  5.000000E+00 -4.550000E+01  1.422982E+06  3.177131E+01  0.000000E+00  1.000000E+00  1.000000E+00  0.000000E+00  0.000000E+00  3.340497E-02  9.957845E+02  2.000610E-01  1.100000E-13  1.100000E-13  1.100000E-15  0.000000E+00  1.000000E+00                                                                                                                                                                                                                                                                                                                                                                                                                                                                                                                                                                    
  4.500000E+01  5.000000E+00 -4.550000E+01  1.422982E+06  3.176852E+01  0.000000E+00  1.000000E+00  1.000000E+00  0.000000E+00  0.000000E+00  3.339998E-02  9.957854E+02  2.000610E-01  1.100000E-13  1.100000E-13  1.100000E-15  0.000000E+00  1.000000E+00                                                                                                                                                                                                                                                                                                                                                                                                                                                                                                                                                                    
  5.500000E+01  5.000000E+00 -4.550000E+01  1.422982E+06  3.176403E+01  0.000000E+00  1.000000E+00  1.000000E+00  0.000000E+00  0.000000E+00  3.339198E-02  9.957868E+02  2.000610E-01  1.100000E-13  1.100000E-13  1.100000E-15  0.000000E+00  1.000000E+00                                                                                                                                                                                                                                                                                                                                                                                                                                                                                                                                                                    
  6.500000E+01  5.000000E+00 -4.550000E+01  1.422982E+06  3.175737E+01  0.000000E+00  1.000000E+00  1.000000E+00  0.000000E+00  0.000000E+00  3.338010E-02  9.957889E+02  2.000609E-01  1.100000E-13  1.100000E-13  1.100000E-15  0.000000E+00  1.000000E+00                                                                                                                                                                                                                                                                                                                                                                                                                                                                                                                                                                    
  7.500000E+01  5.000000E+00 -4.550000E+01  1.422983E+06  3.174838E+01  0.000000E+00  1.000000E+00  1.000000E+00  0.000000E+00  0.000000E+00  3.336406E-02  9.957918E+02  3.000913E-01  1.100000E-10  1.100000E-10  1.100000E-10  0.000000E+00  1.000000E+00                                                                                                                                                                                                                                                                                                                                                                                                                                                                                                                                                                    
  8.500000E+01  5.000000E+00 -4.550000E+01  1.422983E+06  3.175131E+01  0.000000E+00  1.000000E+00  1.000000E+00  0.000000E+00  0.000000E+00  3.336929E-02  9.957909E+02  2.000609E-01  1.100000E-13  1.100000E-13  1.100000E-15  0.000000E+00  1.000000E+00                                                                                                                                                                                                                                                                                                                                                                                                                                                                                                                                                                    
  5.000000E+00  5.000000E+00 -3.000000E+01  1.271701E+06  3.070646E+01  0.000000E+00  1.000000E+00  1.000000E+00  0.000000E+00  0.000000E+00  3.154986E-02  9.960541E+02  1.000289E-01  1.100000E-12  1.100000E-12  1.100000E-12  0.000000E+00  1.000000E+00                                                                                                                                                                                                                                                                                                                                                                                                                                                                                                                                                                    
  1.500000E+01  5.000000E+00 -3.000000E+01  1.271701E+06  3.070611E+01  0.000000E+00  1.000000E+00  1.000000E+00  0.000000E+00  0.000000E+00  3.154926E-02  9.960542E+02  1.000289E-01  1.100000E-12  1.100000E-12  1.100000E-12  0.000000E+00  1.000000E+00                                                                                                                                                                                                                                                                                                                                                                                                                                                                                                                                                                    
  2.500000E+01  5.000000E+00 -3.000000E+01  1.271701E+06  3.070529E+01  0.000000E+00  1.000000E+00  1.000000E+00  0.000000E+00  0.000000E+00  3.154786E-02  9.960545E+02  1.000289E-01  1.100000E-12  1.100000E-12  1.100000E-12  0.000000E+00  1.000000E+00                                                                                                                                                                                                                                                                                                                                                                                                                                                                                                                                                                    
  3.500000E+01  5.000000E+00 -3.000000E+01  1.271701E+06  3.070371E+01  0.000000E+00  1.000000E+00  1.000000E+00  0.000000E+00  0.000000E+00  3.154518E-02  9.960550E+02  1.000289E-01  1.100000E-12  1.100000E-12  1.100000E-12  0.000000E+00  1.000000E+00                                                                                                                                                                                                                                                                                                                                                                                                                                                                                                                                                                    
  4.500000E+01  5.000000E+00 -3.000000E+01  1.271701E+06  3.070095E+01  0.000000E+00  1.000000E+00  1.000000E+00  0.000000E+00  0.000000E+00  3.154049E-02  9.960558E+02  1.000289E-01  1.100000E-12  1.100000E-12  1.100000E-12  0.000000E+00  1.000000E+00                                                                                                                                                                                                                                                                                                                                                                                                                                                                                                                                                                    
  5.500000E+01  5.000000E+00 -3.000000E+01  1.271701E+06  3.069640E+01  0.000000E+00  1.000000E+00  1.000000E+00  0.000000E+00  0.000000E+00  3.153275E-02  9.960572E+02  1.000289E-01  1.100000E-12  1.100000E-12  1.100000E-12  0.000000E+00  1.000000E+00                                                                                                                                                                                                                                                                                                                                                                                                                                                                                                                                                                    
  6.500000E+01  5.000000E+00 -3.000000E+01  1.271701E+06  3.068926E+01  0.000000E+00  1.000000E+00  1.000000E+00  0.000000E+00  0.000000E+00  3.152063E-02  9.960595E+02  1.000288E-01  1.100000E-12  1.100000E-12  1.100000E-12  0.000000E+00  1.000000E+00                                                                                                                                                                                                                                                                                                                                                                                                                                                                                                                                                                    
  7.500000E+01  5.000000E+00 -3.000000E+01  1.271701E+06  3.067857E+01  0.000000E+00  1.000000E+00  1.000000E+00  0.000000E+00  0.000000E+00  3.150248E-02  9.960628E+02  3.000864E-01  1.100000E-10  1.100000E-10  1.100000E-10  0.000000E+00  1.000000E+00                                                                                                                                                                                                                                                                                                                                                                                                                                                                                                                                                                    
  8.500000E+01  5.000000E+00 -3.000000E+01  1.271701E+06  3.068312E+01  0.000000E+00  1.000000E+00  1.000000E+00  0.000000E+00  0.000000E+00  3.151021E-02  9.960614E+02  1.000288E-01  1.100000E-12  1.100000E-12  1.100000E-12  0.000000E+00  1.000000E+00                                                                                                                                                                                                                                                                                                                                                                                                                                                                                                                                                                    
  5.000000E+00  5.000000E+00 -1.000000E+01  1.076471E+06  3.031731E+01  0.000000E+00  1.000000E+00  1.000000E+00  0.000000E+00  0.000000E+00  3.089430E-02  9.960882E+02  1.000297E-01  1.100000E-12  1.100000E-12  1.100000E-12  0.000000E+00  1.000000E+00                                                                                                                                                                                                                                                                                                                                                                                                                                                                                                                                                                    
  1.500000E+01  5.000000E+00 -1.000000E+01  1.076471E+06  3.031701E+01  0.000000E+00  1.000000E+00  1.000000E+00  0.000000E+00  0.000000E+00  3.089380E-02  9.960883E+02  1.000297E-01  1.100000E-12  1.100000E-12  1.100000E-12  0.000000E+00  1.000000E+00                                                                                                                                                                                                                                                                                                                                                                                                                                                                                                                                                                    
  2.500000E+01  5.000000E+00 -1.000000E+01  1.076471E+06  3.031629E+01  0.000000E+00  1.000000E+00  1.000000E+00  0.000000E+00  0.000000E+00  3.089261E-02  9.960885E+02  1.000297E-01  1.100000E-12  1.100000E-12  1.100000E-12  0.000000E+00  1.000000E+00                                                                                                                                                                                                                                                                                                                                                                                                                                                                                                                                                                    
  3.500000E+01  5.000000E+00 -1.000000E+01  1.076471E+06  3.031494E+01  0.000000E+00  1.000000E+00  1.000000E+00  0.000000E+00  0.000000E+00  3.089035E-02  9.960889E+02  1.000297E-01  1.100000E-12  1.100000E-12  1.100000E-12  0.000000E+00  1.000000E+00                                                                                                                                                                                                                                                                                                                                                                                                                                                                                                                                                                    
  4.500000E+01  5.000000E+00 -1.000000E+01  1.076471E+06  3.031258E+01  0.000000E+00  1.000000E+00  1.000000E+00  0.000000E+00  0.000000E+00  3.088640E-02  9.960896E+02  1.000297E-01  1.100000E-12  1.100000E-12  1.100000E-12  0.000000E+00  1.000000E+00                                                                                                                                                                                                                                                                                                                                                                                                                                                                                                                                                                    
  5.500000E+01  5.000000E+00 -1.000000E+01  1.076471E+06  3.030870E+01  0.000000E+00  1.000000E+00  1.000000E+00  0.000000E+00  0.000000E+00  3.087994E-02  9.960908E+02  1.000297E-01  1.100000E-12  1.100000E-12  1.100000E-12  0.000000E+00  1.000000E+00                                                                                                                                                                                                                                                                                                                                                                                                                                                                                                                                                                    
  6.500000E+01  5.000000E+00 -1.000000E+01  1.076470E+06  3.030270E+01  0.000000E+00  1.000000E+00  1.000000E+00  0.000000E+00  0.000000E+00  3.086993E-02  9.960927E+02  1.000297E-01  1.100000E-12  1.100000E-12  1.100000E-12  0.000000E+00  1.000000E+00                                                                                                                                                                                                                                                                                                                                                                                                                                                                                                                                                                    
  7.500000E+01  5.000000E+00 -1.000000E+01  1.076470E+06  3.029390E+01  0.000000E+00  1.000000E+00  1.000000E+00  0.000000E+00  0.000000E+00  3.085525E-02  9.960954E+02  3.000890E-01  1.100000E-10  1.100000E-10  1.100000E-10  0.000000E+00  1.000000E+00                                                                                                                                                                                                                                                                                                                                                                                                                                                                                                                                                                    