Title="TOUGHREACT V3.30-OMP flowdata.tec: P,T,SAT & Other Variables"                                                                                                                                                                                                                                                                                                                                                                                                                                                                                                                                                                                                                                                                                                                                                            
Variables= "X(m)"     "Y(m)"      "Z(m)"       "P(Pa)"        "T(C)"      "SatGas"      "SatLiq"          "X1"          "X2"    "Pcap(Pa)"  "DGas_kg/m3"  "DLiq_kg/m3"    "Porosity"  "Perm_X(m2)"  "Perm_Y(m2)"  "Perm_Z(m2)"    "Krel_Gas"    "Krel_Liq"                                                                                                                                                                                                                                                                                                                                                                                                                                                                                                                                                                      
Zone T= "3.15569000E+08 sec" I=     9 J=    10 K=    23 F=Point
  1.250000E+02  1.250000E+02  1.250000E+02  6.843625E+06  3.013074E+01  0.000000E+00  1.000000E+00  1.000000E+00  0.000000E+00  0.000000E+00  3.058419E-02  9.986831E+02  1.009933E-01  1.100000E-17  1.100000E-17  1.100000E-17  0.000000E+00  1.000000E+00                                                                                                                                                                                                                                                                                                                                                                                                                                                                                                                                                                    
  3.750000E+02  1.250000E+02  1.250000E+02  6.927404E+06  3.013115E+01  0.000000E+00  1.000000E+00  1.000000E+00  0.000000E+00  0.000000E+00  3.058486E-02  9.987196E+02  1.010204E-01  1.100000E-17  1.100000E-17  1.100000E-17  0.000000E+00  1.000000E+00                                                                                                                                                                                                                                                                                                                                                                                                                                                                                                                                                                    
  6.250000E+02  1.250000E+02  1.250000E+02  8.174386E+06  3.013932E+01  0.000000E+00  1.000000E+00  1.000000E+00  0.000000E+00  0.000000E+00  3.059839E-02  9.992613E+02  1.014241E-01  1.100000E-17  1.100000E-17  1.100000E-17  0.000000E+00  1.000000E+00                                                                                                                                                                                                                                                                                                                                                                                                                                                                                                                                                                    
  8.750000E+02  1.250000E+02  1.250000E+02  2.098682E+07  3.032881E+01  0.000000E+00  1.000000E+00  1.000000E+00  0.000000E+00  0.000000E+00  3.091351E-02  1.004708E+03  1.056650E-01  1.100000E-17  1.100000E-17  1.100000E-17  0.000000E+00  1.000000E+00                                                                                                                                                                                                                                                                                                                                                                                                                                                                                                                                                                    
  1.050000E+03  1.250000E+02  1.250000E+02  5.526419E+07  3.235126E+01  0.000000E+00  1.000000E+00  1.000000E+00  0.000000E+00  0.000000E+00  3.445407E-02  1.018046E+03  3.533400E-01  1.100000E-10  1.100000E-10  1.100000E-10  0.000000E+00  1.000000E+00                                                                                                                                                                                                                                                                                                                                                                                                                                                                                                                                                                    
  1.225000E+03  1.250000E+02  1.250000E+02  2.098682E+07  3.032881E+01  0.000000E+00  1.000000E+00  1.000000E+00  0.000000E+00  0.000000E+00  3.091351E-02  1.004708E+03  1.056650E-01  1.100000E-17  1.100000E-17  1.100000E-17  0.000000E+00  1.000000E+00                                                                                                                                                                                                                                                                                                                                                                                                                                                                                                                                                                    
  1.475000E+03  1.250000E+02  1.250000E+02  8.174386E+06  3.013932E+01  0.000000E+00  1.000000E+00  1.000000E+00  0.000000E+00  0.000000E+00  3.059839E-02  9.992613E+02  1.014241E-01  1.100000E-17  1.100000E-17  1.100000E-17  0.000000E+00  1.000000E+00                                                                                                                                                                                                                                                                                                                                                                                                                                                                                                                                                                    
  1.725000E+03  1.250000E+02  1.250000E+02  6.927404E+06  3.013115E+01  0.000000E+00  1.000000E+00  1.000000E+00  0.000000E+00  0.000000E+00  3.058486E-02  9.987196E+02  1.010204E-01  1.100000E-17  1.100000E-17  1.100000E-17  0.000000E+00  1.000000E+00                                                                                                                                                                                                                                                                                                                                                                                                                                                                                                                                                                    
  1.975000E+03  1.250000E+02  1.250000E+02  6.843625E+06  3.013074E+01  0.000000E+00  1.000000E+00  1.000000E+00  0.000000E+00  0.000000E+00  3.058419E-02  9.986831E+02  1.009933E-01  1.100000E-17  1.100000E-17  1.100000E-17  0.000000E+00  1.000000E+00                                                                                                                                                                                                                                                                                                                                                                                                                                                                                                                                                                    
  1.250000E+02  1.250000E+02  3.750000E+02  2.296582E+07  4.031167E+01  0.000000E+00  1.000000E+00  1.000000E+00  0.000000E+00  0.000000E+00  5.196717E-02  1.001942E+03  1.054853E-01  1.100000E-17  1.100000E-17  1.100000E-17  0.000000E+00  1.000000E+00                                                                                                                                                                                                                                                                                                                                                                                                                                                                                                                                                                    
  3.750000E+02  1.250000E+02  3.750000E+02  2.303870E+07  4.031236E+01  0.000000E+00  1.000000E+00  1.000000E+00  0.000000E+00  0.000000E+00  5.196897E-02  1.001973E+03  1.055099E-01  1.100000E-17  1.100000E-17  1.100000E-17  0.000000E+00  1.000000E+00                                                                                                                                                                                                                                                                                                                                                                                                                                                                                                                                                                    
  6.250000E+02  1.250000E+02  3.750000E+02  2.397249E+07  4.031934E+01  0.000000E+00  1.000000E+00  1.000000E+00  0.000000E+00  0.000000E+00  5.198714E-02  1.002358E+03  1.058251E-01  1.100000E-17  1.100000E-17  1.100000E-17  0.000000E+00  1.000000E+00                                                                                                                                                                                                                                                                                                                                                                                                                                                                                                                                                                    
  8.750000E+02  1.250000E+02  3.750000E+02  3.247894E+07  4.046438E+01  0.000000E+00  1.000000E+00  1.000000E+00  0.000000E+00  0.000000E+00  5.236603E-02  1.005802E+03  1.087389E-01  1.100000E-17  1.100000E-17  1.100000E-17  0.000000E+00  1.000000E+00                                                                                                                                                                                                                                                                                                                                                                                                                                                                                                                                                                    
  1.050000E+03  1.250000E+02  3.750000E+02  5.277658E+07  4.344985E+01  0.000000E+00  1.000000E+00  1.000000E+00  0.000000E+00  0.000000E+00  6.070433E-02  1.012676E+03  3.478043E-01  1.100000E-10  1.100000E-10  1.100000E-10  0.000000E+00  1.000000E+00                                                                                                                                                                                                                                                                                                                                                                                                                                                                                                                                                                    
  1.225000E+03  1.250000E+02  3.750000E+02  3.247894E+07  4.046438E+01  0.000000E+00  1.000000E+00  1.000000E+00  0.000000E+00  0.000000E+00  5.236603E-02  1.005802E+03  1.087389E-01  1.100000E-17  1.100000E-17  1.100000E-17  0.000000E+00  1.000000E+00                                                                                                                                                                                                                                                                                                                                                                                                                                                                                                                                                                    
  1.475000E+03  1.250000E+02  3.750000E+02  2.397249E+07  4.031934E+01  0.000000E+00  1.000000E+00  1.000000E+00  0.000000E+00  0.000000E+00  5.198714E-02  1.002358E+03  1.058251E-01  1.100000E-17  1.100000E-17  1.100000E-17  0.000000E+00  1.000000E+00                                                                                                                                                                                                                                                                                                                                                                                                                                                                                                                                                                    
  1.725000E+03  1.250000E+02  3.750000E+02  2.303870E+07  4.031236E+01  0.000000E+00  1.000000E+00  1.000000E+00  0.000000E+00  0.000000E+00  5.196897E-02  1.001973E+03  1.055099E-01  1.100000E-17  1.100000E-17  1.100000E-17  0.000000E+00  1.000000E+00                                                                                                                                                                                                                                                                                                                                                                                                                                                                                                                                                                    
  1.975000E+03  1.250000E+02  3.750000E+02  2.296582E+07  4.031167E+01  0.000000E+00  1.000000E+00  1.000000E+00  0.000000E+00  0.000000E+00  5.196717E-02  1.001942E+03  1.054853E-01  1.100000E-17  1.100000E-17  1.100000E-17  0.000000E+00  1.000000E+00                                                                                                                                                                                                                                                                                                                                                                                                                                                                                                                                                                    
  1.250000E+02  1.250000E+02  6.250000E+02  5.030622E+07  5.083094E+01  0.000000E+00  1.000000E+00  1.000000E+00  0.000000E+00  0.000000E+00  8.628899E-02  1.008448E+03  1.140769E-01  1.100000E-12  1.100000E-12  1.100000E-12  0.000000E+00  1.000000E+00                                                                                                                                                                                                                                                                                                                                                                                                                                                                                                                                                                    
  3.750000E+02  1.250000E+02  6.250000E+02  5.030591E+07  5.085259E+01  0.000000E+00  1.000000E+00  1.000000E+00  0.000000E+00  0.000000E+00  8.637564E-02  1.008438E+03  1.140807E-01  1.100000E-12  1.100000E-12  1.100000E-12  0.000000E+00  1.000000E+00                                                                                                                                                                                                                                                                                                                                                                                                                                                                                                                                                                    
  6.250000E+02  1.250000E+02  6.250000E+02  5.030520E+07  5.091246E+01  0.000000E+00  1.000000E+00  1.000000E+00  0.000000E+00  0.000000E+00  8.661574E-02  1.008410E+03  1.140882E-01  1.100000E-12  1.100000E-12  1.100000E-12  0.000000E+00  1.000000E+00                                                                                                                                                                                                                                                                                                                                                                                                                                                                                                                                                                    
  8.750000E+02  1.250000E+02  6.250000E+02  5.030381E+07  5.117688E+01  0.000000E+00  1.000000E+00  1.000000E+00  0.000000E+00  0.000000E+00  8.768287E-02  1.008287E+03  1.140990E-01  1.100000E-12  1.100000E-12  1.100000E-12  0.000000E+00  1.000000E+00                                                                                                                                                                                                                                                                                                                                                                                                                                                                                                                                                                    
  1.050000E+03  1.250000E+02  6.250000E+02  5.030246E+07  5.380412E+01  0.000000E+00  1.000000E+00  1.000000E+00  0.000000E+00  0.000000E+00  9.890239E-02  1.007057E+03  3.423750E-01  1.100000E-10  1.100000E-10  1.100000E-10  0.000000E+00  1.000000E+00                                                                                                                                                                                                                                                                                                                                                                                                                                                                                                                                                                    
  1.225000E+03  1.250000E+02  6.250000E+02  5.030381E+07  5.117688E+01  0.000000E+00  1.000000E+00  1.000000E+00  0.000000E+00  0.000000E+00  8.768287E-02  1.008287E+03  1.140990E-01  1.100000E-12  1.100000E-12  1.100000E-12  0.000000E+00  1.000000E+00                                                                                                                                                                                                                                                                                                                                                                                                                                                                                                                                                                    
  1.475000E+03  1.250000E+02  6.250000E+02  5.030520E+07  5.091246E+01  0.000000E+00  1.000000E+00  1.000000E+00  0.000000E+00  0.000000E+00  8.661574E-02  1.008410E+03  1.140882E-01  1.100000E-12  1.100000E-12  1.100000E-12  0.000000E+00  1.000000E+00                                                                                                                                                                                                                                                                                                                                                                                                                                                                                                                                                                    
  1.725000E+03  1.250000E+02  6.250000E+02  5.030591E+07  5.085259E+01  0.000000E+00  1.000000E+00  1.000000E+00  0.000000E+00  0.000000E+00  8.637564E-02  1.008438E+03  1.140807E-01  1.100000E-12  1.100000E-12  1.100000E-12  0.000000E+00  1.000000E+00                                                                                                                                                                                                                                                                                                                                                                                                                                                                                                                                                                    
  1.975000E+03  1.250000E+02  6.250000E+02  5.030622E+07  5.083094E+01  0.000000E+00  1.000000E+00  1.000000E+00  0.000000E+00  0.000000E+00  8.628899E-02  1.008448E+03  1.140769E-01  1.100000E-12  1.100000E-12  1.100000E-12  0.000000E+00  1.000000E+00                                                                                                                                                                                                                                                                                                                                                                                                                                                                                                                                                                    
  1.250000E+02  1.250000E+02  8.750000E+02  4.784363E+07  6.108492E+01  0.000000E+00  1.000000E+00  1.000000E+00  0.000000E+00  0.000000E+00  1.364951E-01  1.002512E+03  1.123002E-01  1.100000E-12  1.100000E-12  1.100000E-12  0.000000E+00  1.000000E+00                                                                                                                                                                                                                                                                                                                                                                                                                                                                                                                                                                    
  3.750000E+02  1.250000E+02  8.750000E+02  4.784343E+07  6.111134E+01  0.000000E+00  1.000000E+00  1.000000E+00  0.000000E+00  0.000000E+00  1.366507E-01  1.002498E+03  1.123043E-01  1.100000E-12  1.100000E-12  1.100000E-12  0.000000E+00  1.000000E+00                                                                                                                                                                                                                                                                                                                                                                                                                                                                                                                                                                    
  6.250000E+02  1.250000E+02  8.750000E+02  4.784301E+07  6.117743E+01  0.000000E+00  1.000000E+00  1.000000E+00  0.000000E+00  0.000000E+00  1.370406E-01  1.002464E+03  1.123125E-01  1.100000E-12  1.100000E-12  1.100000E-12  0.000000E+00  1.000000E+00                                                                                                                                                                                                                                                                                                                                                                                                                                                                                                                                                                    
  8.750000E+02  1.250000E+02  8.750000E+02  4.784236E+07  6.147682E+01  0.000000E+00  1.000000E+00  1.000000E+00  0.000000E+00  0.000000E+00  1.388182E-01  1.002312E+03  1.123243E-01  1.100000E-12  1.100000E-12  1.100000E-12  0.000000E+00  1.000000E+00                                                                                                                                                                                                                                                                                                                                                                                                                                                                                                                                                                    
  1.050000E+03  1.250000E+02  8.750000E+02  4.784205E+07  6.330800E+01  0.000000E+00  1.000000E+00  1.000000E+00  0.000000E+00  0.000000E+00  1.501170E-01  1.001368E+03  3.370353E-01  1.100000E-10  1.100000E-10  1.100000E-10  0.000000E+00  1.000000E+00                                                                                                                                                                                                                                                                                                                                                                                                                                                                                                                                                                    
  1.225000E+03  1.250000E+02  8.750000E+02  4.784236E+07  6.147682E+01  0.000000E+00  1.000000E+00  1.000000E+00  0.000000E+00  0.000000E+00  1.388182E-01  1.002312E+03  1.123243E-01  1.100000E-12  1.100000E-12  1.100000E-12  0.000000E+00  1.000000E+00                                                                                                                                                                                                                                                                                                                                                                                                                                                                                                                                                                    
  1.475000E+03  1.250000E+02  8.750000E+02  4.784301E+07  6.117743E+01  0.000000E+00  1.000000E+00  1.000000E+00  0.000000E+00  0.000000E+00  1.370406E-01  1.002464E+03  1.123125E-01  1.100000E-12  1.100000E-12  1.100000E-12  0.000000E+00  1.000000E+00                                                                                                                                                                                                                                                                                                                                                                                                                                                                                                                                                                    
  1.725000E+03  1.250000E+02  8.750000E+02  4.784343E+07  6.111134E+01  0.000000E+00  1.000000E+00  1.000000E+00  0.000000E+00  0.000000E+00  1.366507E-01  1.002498E+03  1.123043E-01  1.100000E-12  1.100000E-12  1.100000E-12  0.000000E+00  1.000000E+00                                                                                                                                                                                                                                                                                                                                                                                                                                                                                                                                                                    