Title="TOUGHREACT V3.30-OMP: Mineral Abundances(Total or Changes) and/or Exchanged Species: Change in volume fraction"
Variables= "X(m)"   "Y(m)"   "Z(m)"       "T(C)"   "Porosity"  "Poros_Chg" "Permx(m^2)"     "Kx/Kx0" "Permz(m^2)"     "Kz/Kz0" "quartz(alpha"     "dolomite"    "kaolinite"       "barite"      "calcite"
Zone T= "0.00000000E+00 yr" I=     5 J=     5 K=    10 F=Point
       0.5000       0.5000      -9.5000   89.500  0.10000 -1.11225E-07  1.10000E-12  1.0000E+00  1.10000E-12  1.0000E+00  0.0000E+00  0.0000E+00  0.0000E+00  0.0000E+00  0.0000E+00
       1.5000       0.5000      -9.5000   89.500  0.10000 -2.18474E-07  1.10000E-12  1.0000E+00  1.10000E-12  1.0000E+00  0.0000E+00  0.0000E+00  0.0000E+00  0.0000E+00  0.0000E+00
       2.5000       0.5000      -9.5000   89.500  0.30000 -1.35933E-06  1.10000E-10  1.0000E+00  1.10000E-10  1.0000E+00  0.0000E+00  0.0000E+00  0.0000E+00  0.0000E+00  0.0000E+00
       3.5000       0.5000      -9.5000   89.500  0.10000 -2.18474E-07  1.10000E-12  1.0000E+00  1.10000E-12  1.0000E+00  0.0000E+00  0.0000E+00  0.0000E+00  0.0000E+00  0.0000E+00
       4.5000       0.5000      -9.5000   89.500  0.10000 -1.11225E-07  1.10000E-12  1.0000E+00  1.10000E-12  1.0000E+00  0.0000E+00  0.0000E+00  0.0000E+00  0.0000E+00  0.0000E+00
       0.5000       0.5000      -8.5000   88.500  0.10000 -5.20272E-08  1.10000E-12  1.0000E+00  1.10000E-12  1.0000E+00  0.0000E+00  0.0000E+00  0.0000E+00  0.0000E+00  0.0000E+00
       1.5000       0.5000      -8.5000   88.500  0.10000 -1.33965E-07  1.10000E-12  1.0000E+00  1.10000E-12  1.0000E+00  0.0000E+00  0.0000E+00  0.0000E+00  0.0000E+00  0.0000E+00
       2.5000       0.5000      -8.5000   88.500  0.30000 -9.17549E-07  1.10000E-10  1.0000E+00  1.10000E-10  1.0000E+00  0.0000E+00  0.0000E+00  0.0000E+00  0.0000E+00  0.0000E+00
       3.5000       0.5000      -8.5000   88.500  0.10000 -1.33965E-07  1.10000E-12  1.0000E+00  1.10000E-12  1.0000E+00  0.0000E+00  0.0000E+00  0.0000E+00  0.0000E+00  0.0000E+00
       4.5000       0.5000      -8.5000   88.500  0.10000 -5.20272E-08  1.10000E-12  1.0000E+00  1.10000E-12  1.0000E+00  0.0000E+00  0.0000E+00  0.0000E+00  0.0000E+00  0.0000E+00
       0.5000       0.5000      -7.5000   87.500  0.10000 -2.45661E-08  1.10000E-12  1.0000E+00  1.10000E-12  1.0000E+00  0.0000E+00  0.0000E+00  0.0000E+00  0.0000E+00  0.0000E+00
       1.5000       0.5000      -7.5000   87.500  0.10000 -7.80713E-08  1.10000E-12  1.0000E+00  1.10000E-12  1.0000E+00  0.0000E+00  0.0000E+00  0.0000E+00  0.0000E+00  0.0000E+00
       2.5000       0.5000      -7.5000   87.500  0.30000 -5.61843E-07  1.10000E-10  1.0000E+00  1.10000E-10  1.0000E+00  0.0000E+00  0.0000E+00  0.0000E+00  0.0000E+00  0.0000E+00
       3.5000       0.5000      -7.5000   87.500  0.10000 -7.80713E-08  1.10000E-12  1.0000E+00  1.10000E-12  1.0000E+00  0.0000E+00  0.0000E+00  0.0000E+00  0.0000E+00  0.0000E+00
       4.5000       0.5000      -7.5000   87.500  0.10000 -2.45661E-08  1.10000E-12  1.0000E+00  1.10000E-12  1.0000E+00  0.0000E+00  0.0000E+00  0.0000E+00  0.0000E+00  0.0000E+00
       0.5000       0.5000      -6.5000   86.500  0.10000 -3.08604E-11  1.10000E-12  1.0000E+00  1.10000E-12  1.0000E+00  0.0000E+00  0.0000E+00  0.0000E+00  0.0000E+00  0.0000E+00
       1.5000       0.5000      -6.5000   86.500  0.10000 -3.01919E-08  1.10000E-12  1.0000E+00  1.10000E-12  1.0000E+00  0.0000E+00  0.0000E+00  0.0000E+00  0.0000E+00  0.0000E+00
       2.5000       0.5000      -6.5000   86.500  0.30000 -2.63509E-07  1.10000E-10  1.0000E+00  1.10000E-10  1.0000E+00  0.0000E+00  0.0000E+00  0.0000E+00  0.0000E+00  0.0000E+00
       3.5000       0.5000      -6.5000   86.500  0.10000 -3.01919E-08  1.10000E-12  1.0000E+00  1.10000E-12  1.0000E+00  0.0000E+00  0.0000E+00  0.0000E+00  0.0000E+00  0.0000E+00
       4.5000       0.5000      -6.5000   86.500  0.10000 -3.08555E-11  1.10000E-12  1.0000E+00  1.10000E-12  1.0000E+00  0.0000E+00  0.0000E+00  0.0000E+00  0.0000E+00  0.0000E+00
       0.5000       0.5000      -5.5000   85.500  0.10000  5.07745E-08  1.10000E-12  1.0000E+00  1.10000E-12  1.0000E+00  0.0000E+00  0.0000E+00  0.0000E+00  0.0000E+00  0.0000E+00
       1.5000       0.5000      -5.5000   85.500  0.10000  3.27036E-08  1.10000E-12  1.0000E+00  1.10000E-12  1.0000E+00  0.0000E+00  0.0000E+00  0.0000E+00  0.0000E+00  0.0000E+00
       2.5000       0.5000      -5.5000   85.500  0.30000  1.93564E-09  1.10000E-10  1.0000E+00  1.10000E-10  1.0000E+00  0.0000E+00  0.0000E+00  0.0000E+00  0.0000E+00  0.0000E+00
       3.5000       0.5000      -5.5000   85.500  0.10000  3.27036E-08  1.10000E-12  1.0000E+00  1.10000E-12  1.0000E+00  0.0000E+00  0.0000E+00  0.0000E+00  0.0000E+00  0.0000E+00
       4.5000       0.5000      -5.5000   85.500  0.10000  5.07745E-08  1.10000E-12  1.0000E+00  1.10000E-12  1.0000E+00  0.0000E+00  0.0000E+00  0.0000E+00  0.0000E+00  0.0000E+00
       0.5000       0.5000      -4.5000   84.500  0.10000  1.28760E-12  1.10000E-17  1.0000E+00  1.10000E-17  1.0000E+00  0.0000E+00  0.0000E+00  0.0000E+00  0.0000E+00  0.0000E+00
       1.5000       0.5000      -4.5000   84.500  0.10000  1.88739E-12  1.10000E-17  1.0000E+00  1.10000E-17  1.0000E+00  0.0000E+00  0.0000E+00  0.0000E+00  0.0000E+00  0.0000E+00
       2.5000       0.5000      -4.5000   84.500  0.30000  2.54441E-07  1.10000E-10  1.0000E+00  1.10000E-10  1.0000E+00  0.0000E+00  0.0000E+00  0.0000E+00  0.0000E+00  0.0000E+00
       3.5000       0.5000      -4.5000   84.500  0.10000  1.88739E-12  1.10000E-17  1.0000E+00  1.10000E-17  1.0000E+00  0.0000E+00  0.0000E+00  0.0000E+00  0.0000E+00  0.0000E+00
       4.5000       0.5000      -4.5000   84.500  0.10000  1.28760E-12  1.10000E-17  1.0000E+00  1.10000E-17  1.0000E+00  0.0000E+00  0.0000E+00  0.0000E+00  0.0000E+00  0.0000E+00
       0.5000       0.5000      -3.5000   83.500  0.10000  1.79995E-14  1.10000E-17  1.0000E+00  1.10000E-17  1.0000E+00  0.0000E+00  0.0000E+00  0.0000E+00  0.0000E+00  0.0000E+00
       1.5000       0.5000      -3.5000   83.500  0.10000  1.54647E-12  1.10000E-17  1.0000E+00  1.10000E-17  1.0000E+00  0.0000E+00  0.0000E+00  0.0000E+00  0.0000E+00  0.0000E+00
       2.5000       0.5000      -3.5000   83.500  0.30000  5.14503E-07  1.10000E-10  1.0000E+00  1.10000E-10  1.0000E+00  0.0000E+00  0.0000E+00  0.0000E+00  0.0000E+00  0.0000E+00
       3.5000       0.5000      -3.5000   83.500  0.10000  1.54647E-12  1.10000E-17  1.0000E+00  1.10000E-17  1.0000E+00  0.0000E+00  0.0000E+00  0.0000E+00  0.0000E+00  0.0000E+00
       4.5000       0.5000      -3.5000   83.500  0.10000  1.79995E-14  1.10000E-17  1.0000E+00  1.10000E-17  1.0000E+00  0.0000E+00  0.0000E+00  0.0000E+00  0.0000E+00  0.0000E+00
       0.5000       0.5000      -2.5000   82.500  0.10000  1.77081E-14  1.10000E-17  1.0000E+00  1.10000E-17  1.0000E+00  0.0000E+00  0.0000E+00  0.0000E+00  0.0000E+00  0.0000E+00
       1.5000       0.5000      -2.5000   82.500  0.10000  2.36626E-12  1.10000E-17  1.0000E+00  1.10000E-17  1.0000E+00  0.0000E+00  0.0000E+00  0.0000E+00  0.0000E+00  0.0000E+00
       2.5000       0.5000      -2.5000   82.500  0.30000  7.99948E-07  1.10000E-10  1.0000E+00  1.10000E-10  1.0000E+00  0.0000E+00  0.0000E+00  0.0000E+00  0.0000E+00  0.0000E+00
       3.5000       0.5000      -2.5000   82.500  0.10000  2.36626E-12  1.10000E-17  1.0000E+00  1.10000E-17  1.0000E+00  0.0000E+00  0.0000E+00  0.0000E+00  0.0000E+00  0.0000E+00
       4.5000       0.5000      -2.5000   82.500  0.10000  1.77081E-14  1.10000E-17  1.0000E+00  1.10000E-17  1.0000E+00  0.0000E+00  0.0000E+00  0.0000E+00  0.0000E+00  0.0000E+00
       0.5000       0.5000      -1.5000   81.500  0.10000  1.74583E-14  1.10000E-17  1.0000E+00  1.10000E-17  1.0000E+00  0.0000E+00  0.0000E+00  0.0000E+00  0.0000E+00  0.0000E+00
       1.5000       0.5000      -1.5000   81.500  0.10000  3.29838E-12  1.10000E-17  1.0000E+00  1.10000E-17  1.0000E+00  0.0000E+00  0.0000E+00  0.0000E+00  0.0000E+00  0.0000E+00
       2.5000       0.5000      -1.5000   81.500  0.30000  1.13096E-06  1.10000E-10  1.0000E+00  1.10000E-10  1.0000E+00  0.0000E+00  0.0000E+00  0.0000E+00  0.0000E+00  0.0000E+00
       3.5000       0.5000      -1.5000   81.500  0.10000  3.29838E-12  1.10000E-17  1.0000E+00  1.10000E-17  1.0000E+00  0.0000E+00  0.0000E+00  0.0000E+00  0.0000E+00  0.0000E+00
       4.5000       0.5000      -1.5000   81.500  0.10000  1.74583E-14  1.10000E-17  1.0000E+00  1.10000E-17  1.0000E+00  0.0000E+00  0.0000E+00  0.0000E+00  0.0000E+00  0.0000E+00
       0.5000       0.5000      -0.5000   80.500  0.10000  6.10238E-12  1.10000E-17  1.0000E+00  1.10000E-17  1.0000E+00  0.0000E+00  0.0000E+00  0.0000E+00  0.0000E+00  0.0000E+00
       1.5000       0.5000      -0.5000   80.500  0.10000  1.04922E-11  1.10000E-17  1.0000E+00  1.10000E-17  1.0000E+00  0.0000E+00  0.0000E+00  0.0000E+00  0.0000E+00  0.0000E+00
       2.5000       0.5000      -0.5000   80.500  0.30000  1.53160E-06  1.10000E-10  1.0000E+00  1.10000E-10  1.0000E+00  0.0000E+00  0.0000E+00  0.0000E+00  0.0000E+00  0.0000E+00
       3.5000       0.5000      -0.5000   80.500  0.10000  1.04922E-11  1.10000E-17  1.0000E+00  1.10000E-17  1.0000E+00  0.0000E+00  0.0000E+00  0.0000E+00  0.0000E+00  0.0000E+00
       4.5000       0.5000      -0.5000   80.500  0.10000  6.10238E-12  1.10000E-17  1.0000E+00  1.10000E-17  1.0000E+00  0.0000E+00  0.0000E+00  0.0000E+00  0.0000E+00  0.0000E+00
       0.5000       1.5000      -9.5000   89.500  0.10000 -1.11225E-07  1.10000E-12  1.0000E+00  1.10000E-12  1.0000E+00  0.0000E+00  0.0000E+00  0.0000E+00  0.0000E+00  0.0000E+00
       1.5000       1.5000      -9.5000   89.500  0.10000 -2.18474E-07  1.10000E-12  1.0000E+00  1.10000E-12  1.0000E+00  0.0000E+00  0.0000E+00  0.0000E+00  0.0000E+00  0.0000E+00
       2.5000       1.5000      -9.5000   89.500  0.30000 -1.35933E-06  1.10000E-10  1.0000E+00  1.10000E-10  1.0000E+00  0.0000E+00  0.0000E+00  0.0000E+00  0.0000E+00  0.0000E+00
       3.5000       1.5000      -9.5000   89.500  0.10000 -2.18474E-07  1.10000E-12  1.0000E+00  1.10000E-12  1.0000E+00  0.0000E+00  0.0000E+00  0.0000E+00  0.0000E+00  0.0000E+00
       4.5000       1.5000      -9.5000   89.500  0.10000 -1.11225E-07  1.10000E-12  1.0000E+00  1.10000E-12  1.0000E+00  0.0000E+00  0.0000E+00  0.0000E+00  0.0000E+00  0.0000E+00
       0.5000       1.5000      -8.5000   88.500  0.10000 -5.20272E-08  1.10000E-12  1.0000E+00  1.10000E-12  1.0000E+00  0.0000E+00  0.0000E+00  0.0000E+00  0.0000E+00  0.0000E+00
       1.5000       1.5000      -8.5000   88.500  0.10000 -1.33965E-07  1.10000E-12  1.0000E+00  1.10000E-12  1.0000E+00  0.0000E+00  0.0000E+00  0.0000E+00  0.0000E+00  0.0000E+00
       2.5000       1.5000      -8.5000   88.500  0.30000 -9.17549E-07  1.10000E-10  1.0000E+00  1.10000E-10  1.0000E+00  0.0000E+00  0.0000E+00  0.0000E+00  0.0000E+00  0.0000E+00
       3.5000       1.5000      -8.5000   88.500  0.10000 -1.33965E-07  1.10000E-12  1.0000E+00  1.10000E-12  1.0000E+00  0.0000E+00  0.0000E+00  0.0000E+00  0.0000E+00  0.0000E+00
       4.5000       1.5000      -8.5000   88.500  0.10000 -5.20272E-08  1.10000E-12  1.0000E+00  1.10000E-12  1.0000E+00  0.0000E+00  0.0000E+00  0.0000E+00  0.0000E+00  0.0000E+00
       0.5000       1.5000      -7.5000   87.500  0.10000 -2.45661E-08  1.10000E-12  1.0000E+00  1.10000E-12  1.0000E+00  0.0000E+00  0.0000E+00  0.0000E+00  0.0000E+00  0.0000E+00
       1.5000       1.5000      -7.5000   87.500  0.10000 -7.80713E-08  1.10000E-12  1.0000E+00  1.10000E-12  1.0000E+00  0.0000E+00  0.0000E+00  0.0000E+00  0.0000E+00  0.0000E+00
       2.5000       1.5000      -7.5000   87.500  0.30000 -5.61843E-07  1.10000E-10  1.0000E+00  1.10000E-10  1.0000E+00  0.0000E+00  0.0000E+00  0.0000E+00  0.0000E+00  0.0000E+00
       3.5000       1.5000      -7.5000   87.500  0.10000 -7.80713E-08  1.10000E-12  1.0000E+00  1.10000E-12  1.0000E+00  0.0000E+00  0.0000E+00  0.0000E+00  0.0000E+00  0.0000E+00
       4.5000       1.5000      -7.5000   87.500  0.10000 -2.45661E-08  1.10000E-12  1.0000E+00  1.10000E-12  1.0000E+00  0.0000E+00  0.0000E+00  0.0000E+00  0.0000E+00  0.0000E+00
       0.5000       1.5000      -6.5000   86.500  0.10000 -3.08597E-11  1.10000E-12  1.0000E+00  1.10000E-12  1.0000E+00  0.0000E+00  0.0000E+00  0.0000E+00  0.0000E+00  0.0000E+00
       1.5000       1.5000      -6.5000   86.500  0.10000 -3.01919E-08  1.10000E-12  1.0000E+00  1.10000E-12  1.0000E+00  0.0000E+00  0.0000E+00  0.0000E+00  0.0000E+00  0.0000E+00
       2.5000       1.5000      -6.5000   86.500  0.30000 -2.63509E-07  1.10000E-10  1.0000E+00  1.10000E-10  1.0000E+00  0.0000E+00  0.0000E+00  0.0000E+00  0.0000E+00  0.0000E+00
       3.5000       1.5000      -6.5000   86.500  0.10000 -3.01919E-08  1.10000E-12  1.0000E+00  1.10000E-12  1.0000E+00  0.0000E+00  0.0000E+00  0.0000E+00  0.0000E+00  0.0000E+00
       4.5000       1.5000      -6.5000   86.500  0.10000 -3.08539E-11  1.10000E-12  1.0000E+00  1.10000E-12  1.0000E+00  0.0000E+00  0.0000E+00  0.0000E+00  0.0000E+00  0.0000E+00
       0.5000       1.5000      -5.5000   85.500  0.10000  5.07745E-08  1.10000E-12  1.0000E+00  1.10000E-12  1.0000E+00  0.0000E+00  0.0000E+00  0.0000E+00  0.0000E+00  0.0000E+00
       1.5000       1.5000      -5.5000   85.500  0.10000  3.27036E-08  1.10000E-12  1.0000E+00  1.10000E-12  1.0000E+00  0.0000E+00  0.0000E+00  0.0000E+00  0.0000E+00  0.0000E+00
       2.5000       1.5000      -5.5000   85.500  0.30000  1.93569E-09  1.10000E-10  1.0000E+00  1.10000E-10  1.0000E+00  0.0000E+00  0.0000E+00  0.0000E+00  0.0000E+00  0.0000E+00
       3.5000       1.5000      -5.5000   85.500  0.10000  3.27036E-08  1.10000E-12  1.0000E+00  1.10000E-12  1.0000E+00  0.0000E+00  0.0000E+00  0.0000E+00  0.0000E+00  0.0000E+00
       4.5000       1.5000      -5.5000   85.500  0.10000  5.07745E-08  1.10000E-12  1.0000E+00  1.10000E-12  1.0000E+00  0.0000E+00  0.0000E+00  0.0000E+00  0.0000E+00  0.0000E+00
       0.5000       1.5000      -4.5000   84.500  0.10000  1.28760E-12  1.10000E-17  1.0000E+00  1.10000E-17  1.0000E+00  0.0000E+00  0.0000E+00  0.0000E+00  0.0000E+00  0.0000E+00
       1.5000       1.5000      -4.5000   84.500  0.10000  1.88739E-12  1.10000E-17  1.0000E+00  1.10000E-17  1.0000E+00  0.0000E+00  0.0000E+00  0.0000E+00  0.0000E+00  0.0000E+00
       2.5000       1.5000      -4.5000   84.500  0.30000  2.54441E-07  1.10000E-10  1.0000E+00  1.10000E-10  1.0000E+00  0.0000E+00  0.0000E+00  0.0000E+00  0.0000E+00  0.0000E+00
       3.5000       1.5000      -4.5000   84.500  0.10000  1.88739E-12  1.10000E-17  1.0000E+00  1.10000E-17  1.0000E+00  0.0000E+00  0.0000E+00  0.0000E+00  0.0000E+00  0.0000E+00
       4.5000       1.5000      -4.5000   84.500  0.10000  1.28760E-12  1.10000E-17  1.0000E+00  1.10000E-17  1.0000E+00  0.0000E+00  0.0000E+00  0.0000E+00  0.0000E+00  0.0000E+00
       0.5000       1.5000      -3.5000   83.500  0.10000  1.79995E-14  1.10000E-17  1.0000E+00  1.10000E-17  1.0000E+00  0.0000E+00  0.0000E+00  0.0000E+00  0.0000E+00  0.0000E+00
       1.5000       1.5000      -3.5000   83.500  0.10000  1.54647E-12  1.10000E-17  1.0000E+00  1.10000E-17  1.0000E+00  0.0000E+00  0.0000E+00  0.0000E+00  0.0000E+00  0.0000E+00
       2.5000       1.5000      -3.5000   83.500  0.30000  5.14503E-07  1.10000E-10  1.0000E+00  1.10000E-10  1.0000E+00  0.0000E+00  0.0000E+00  0.0000E+00  0.0000E+00  0.0000E+00
       3.5000       1.5000      -3.5000   83.500  0.10000  1.54647E-12  1.10000E-17  1.0000E+00  1.10000E-17  1.0000E+00  0.0000E+00  0.0000E+00  0.0000E+00  0.0000E+00  0.0000E+00
       4.5000       1.5000      -3.5000   83.500  0.10000  1.79995E-14  1.10000E-17  1.0000E+00  1.10000E-17  1.0000E+00  0.0000E+00  0.0000E+00  0.0000E+00  0.0000E+00  0.0000E+00
       0.5000       1.5000      -2.5000   82.500  0.10000  1.77081E-14  1.10000E-17  1.0000E+00  1.10000E-17  1.0000E+00  0.0000E+00  0.0000E+00  0.0000E+00  0.0000E+00  0.0000E+00
       1.5000       1.5000      -2.5000   82.500  0.10000  2.36626E-12  1.10000E-17  1.0000E+00  1.10000E-17  1.0000E+00  0.0000E+00  0.0000E+00  0.0000E+00  0.0000E+00  0.0000E+00
       2.5000       1.5000      -2.5000   82.500  0.30000  7.99948E-07  1.10000E-10  1.0000E+00  1.10000E-10  1.0000E+00  0.0000E+00  0.0000E+00  0.0000E+00  0.0000E+00  0.0000E+00
       3.5000       1.5000      -2.5000   82.500  0.10000  2.36626E-12  1.10000E-17  1.0000E+00  1.10000E-17  1.0000E+00  0.0000E+00  0.0000E+00  0.0000E+00  0.0000E+00  0.0000E+00
       4.5000       1.5000      -2.5000   82.500  0.10000  1.77081E-14  1.10000E-17  1.0000E+00  1.10000E-17  1.0000E+00  0.0000E+00  0.0000E+00  0.0000E+00  0.0000E+00  0.0000E+00
       0.5000       1.5000      -1.5000   81.500  0.10000  1.74583E-14  1.10000E-17  1.0000E+00  1.10000E-17  1.0000E+00  0.0000E+00  0.0000E+00  0.0000E+00  0.0000E+00  0.0000E+00
       1.5000       1.5000      -1.5000   81.500  0.10000  3.29838E-12  1.10000E-17  1.0000E+00  1.10000E-17  1.0000E+00  0.0000E+00  0.0000E+00  0.0000E+00  0.0000E+00  0.0000E+00
       2.5000       1.5000      -1.5000   81.500  0.30000  1.13096E-06  1.10000E-10  1.0000E+00  1.10000E-10  1.0000E+00  0.0000E+00  0.0000E+00  0.0000E+00  0.0000E+00  0.0000E+00
       3.5000       1.5000      -1.5000   81.500  0.10000  3.29838E-12  1.10000E-17  1.0000E+00  1.10000E-17  1.0000E+00  0.0000E+00  0.0000E+00  0.0000E+00  0.0000E+00  0.0000E+00
       4.5000       1.5000      -1.5000   81.500  0.10000  1.74583E-14  1.10000E-17  1.0000E+00  1.10000E-17  1.0000E+00  0.0000E+00  0.0000E+00  0.0000E+00  0.0000E+00  0.0000E+00
       0.5000       1.5000      -0.5000   80.500  0.10000  6.10238E-12  1.10000E-17  1.0000E+00  1.10000E-17  1.0000E+00  0.0000E+00  0.0000E+00  0.0000E+00  0.0000E+00  0.0000E+00
       1.5000       1.5000      -0.5000   80.500  0.10000  1.04922E-11  1.10000E-17  1.0000E+00  1.10000E-17  1.0000E+00  0.0000E+00  0.0000E+00  0.0000E+00  0.0000E+00  0.0000E+00
       2.5000       1.5000      -0.5000   80.500  0.30000  1.53160E-06  1.10000E-10  1.0000E+00  1.10000E-10  1.0000E+00  0.0000E+00  0.0000E+00  0.0000E+00  0.0000E+00  0.0000E+00
       3.5000       1.5000      -0.5000   80.500  0.10000  1.04922E-11  1.10000E-17  1.0000E+00  1.10000E-17  1.0000E+00  0.0000E+00  0.0000E+00  0.0000E+00  0.0000E+00  0.0000E+00
       4.5000       1.5000      -0.5000   80.500  0.10000  6.10238E-12  1.10000E-17  1.0000E+00  1.10000E-17  1.0000E+00  0.0000E+00  0.0000E+00  0.0000E+00  0.0000E+00  0.0000E+00
       0.5000       2.5000      -9.5000   89.500  0.10000 -1.11225E-07  1.10000E-12  1.0000E+00  1.10000E-12  1.0000E+00  0.0000E+00  0.0000E+00  0.0000E+00  0.0000E+00  0.0000E+00
       1.5000       2.5000      -9.5000   89.500  0.10000 -2.18474E-07  1.10000E-12  1.0000E+00  1.10000E-12  1.0000E+00  0.0000E+00  0.0000E+00  0.0000E+00  0.0000E+00  0.0000E+00
       2.5000       2.5000      -9.5000   89.500  0.30000 -1.35933E-06  1.10000E-10  1.0000E+00  1.10000E-10  1.0000E+00  0.0000E+00  0.0000E+00  0.0000E+00  0.0000E+00  0.0000E+00
       3.5000       2.5000      -9.5000   89.500  0.10000 -2.18474E-07  1.10000E-12  1.0000E+00  1.10000E-12  1.0000E+00  0.0000E+00  0.0000E+00  0.0000E+00  0.0000E+00  0.0000E+00
       4.5000       2.5000      -9.5000   89.500  0.10000 -1.11225E-07  1.10000E-12  1.0000E+00  1.10000E-12  1.0000E+00  0.0000E+00  0.0000E+00  0.0000E+00  0.0000E+00  0.0000E+00
       0.5000       2.5000      -8.5000   88.500  0.10000 -5.20272E-08  1.10000E-12  1.0000E+00  1.10000E-12  1.0000E+00  0.0000E+00  0.0000E+00  0.0000E+00  0.0000E+00  0.0000E+00
       1.5000       2.5000      -8.5000   88.500  0.10000 -1.33965E-07  1.10000E-12  1.0000E+00  1.10000E-12  1.0000E+00  0.0000E+00  0.0000E+00  0.0000E+00  0.0000E+00  0.0000E+00
       2.5000       2.5000      -8.5000   88.500  0.30000 -9.17549E-07  1.10000E-10  1.0000E+00  1.10000E-10  1.0000E+00  0.0000E+00  0.0000E+00  0.0000E+00  0.0000E+00  0.0000E+00
       3.5000       2.5000      -8.5000   88.500  0.10000 -1.33965E-07  1.10000E-12  1.0000E+00  1.10000E-12  1.0000E+00  0.0000E+00  0.0000E+00  0.0000E+00  0.0000E+00  0.0000E+00
       4.5000       2.5000      -8.5000   88.500  0.10000 -5.20272E-08  1.10000E-12  1.0000E+00  1.10000E-12  1.0000E+00  0.0000E+00  0.0000E+00  0.0000E+00  0.0000E+00  0.0000E+00
       0.5000       2.5000      -7.5000   87.500  0.10000 -2.45661E-08  1.10000E-12  1.0000E+00  1.10000E-12  1.0000E+00  0.0000E+00  0.0000E+00  0.0000E+00  0.0000E+00  0.0000E+00
       1.5000       2.5000      -7.5000   87.500  0.10000 -7.80713E-08  1.10000E-12  1.0000E+00  1.10000E-12  1.0000E+00  0.0000E+00  0.0000E+00  0.0000E+00  0.0000E+00  0.0000E+00
       2.5000       2.5000      -7.5000   87.500  0.30000 -5.61843E-07  1.10000E-10  1.0000E+00  1.10000E-10  1.0000E+00  0.0000E+00  0.0000E+00  0.0000E+00  0.0000E+00  0.0000E+00
       3.5000       2.5000      -7.5000   87.500  0.10000 -7.80713E-08  1.10000E-12  1.0000E+00  1.10000E-12  1.0000E+00  0.0000E+00  0.0000E+00  0.0000E+00  0.0000E+00  0.0000E+00
       4.5000       2.5000      -7.5000   87.500  0.10000 -2.45661E-08  1.10000E-12  1.0000E+00  1.10000E-12  1.0000E+00  0.0000E+00  0.0000E+00  0.0000E+00  0.0000E+00  0.0000E+00
       0.5000       2.5000      -6.5000   86.500  0.10000 -3.08584E-11  1.10000E-12  1.0000E+00  1.10000E-12  1.0000E+00  0.0000E+00  0.0000E+00  0.0000E+00  0.0000E+00  0.0000E+00
       1.5000       2.5000      -6.5000   86.500  0.10000 -3.01919E-08  1.10000E-12  1.0000E+00  1.10000E-12  1.0000E+00  0.0000E+00  0.0000E+00  0.0000E+00  0.0000E+00  0.0000E+00
       2.5000       2.5000      -6.5000   86.500  0.30000 -2.63509E-07  1.10000E-10  1.0000E+00  1.10000E-10  1.0000E+00  0.0000E+00  0.0000E+00  0.0000E+00  0.0000E+00  0.0000E+00
       3.5000       2.5000      -6.5000   86.500  0.10000 -3.01919E-08  1.10000E-12  1.0000E+00  1.10000E-12  1.0000E+00  0.0000E+00  0.0000E+00  0.0000E+00  0.0000E+00  0.0000E+00
       4.5000       2.5000      -6.5000   86.500  0.10000 -3.08539E-11  1.10000E-12  1.0000E+00  1.10000E-12  1.0000E+00  0.0000E+00  0.0000E+00  0.0000E+00  0.0000E+00  0.0000E+00
       0.5000       2.5000      -5.5000   85.500  0.10000  5.07745E-08  1.10000E-12  1.0000E+00  1.10000E-12  1.0000E+00  0.0000E+00  0.0000E+00  0.0000E+00  0.0000E+00  0.0000E+00
       1.5000       2.5000      -5.5000   85.500  0.10000  3.27036E-08  1.10000E-12  1.0000E+00  1.10000E-12  1.0000E+00  0.0000E+00  0.0000E+00  0.0000E+00  0.0000E+00  0.0000E+00
       2.5000       2.5000      -5.5000   85.500  0.30000  1.93561E-09  1.10000E-10  1.0000E+00  1.10000E-10  1.0000E+00  0.0000E+00  0.0000E+00  0.0000E+00  0.0000E+00  0.0000E+00
       3.5000       2.5000      -5.5000   85.500  0.10000  3.27036E-08  1.10000E-12  1.0000E+00  1.10000E-12  1.0000E+00  0.0000E+00  0.0000E+00  0.0000E+00  0.0000E+00  0.0000E+00
       4.5000       2.5000      -5.5000   85.500  0.10000  5.07745E-08  1.10000E-12  1.0000E+00  1.10000E-12  1.0000E+00  0.0000E+00  0.0000E+00  0.0000E+00  0.0000E+00  0.0000E+00
       0.5000       2.5000      -4.5000   84.500  0.10000  1.28760E-12  1.10000E-17  1.0000E+00  1.10000E-17  1.0000E+00  0.0000E+00  0.0000E+00  0.0000E+00  0.0000E+00  0.0000E+00
       1.5000       2.5000      -4.5000   84.500  0.10000  1.88739E-12  1.10000E-17  1.0000E+00  1.10000E-17  1.0000E+00  0.0000E+00  0.0000E+00  0.0000E+00  0.0000E+00  0.0000E+00
       2.5000       2.5000      -4.5000   84.500  0.30000  2.54441E-07  1.10000E-10  1.0000E+00  1.10000E-10  1.0000E+00  0.0000E+00  0.0000E+00  0.0000E+00  0.0000E+00  0.0000E+00
       3.5000       2.5000      -4.5000   84.500  0.10000  1.88739E-12  1.10000E-17  1.0000E+00  1.10000E-17  1.0000E+00  0.0000E+00  0.0000E+00  0.0000E+00  0.0000E+00  0.0000E+00
       4.5000       2.5000      -4.5000   84.500  0.10000  1.28760E-12  1.10000E-17  1.0000E+00  1.10000E-17  1.0000E+00  0.0000E+00  0.0000E+00  0.0000E+00  0.0000E+00  0.0000E+00
       0.5000       2.5000      -3.5000   83.500  0.10000  1.79995E-14  1.10000E-17  1.0000E+00  1.10000E-17  1.0000E+00  0.0000E+00  0.0000E+00  0.0000E+00  0.0000E+00  0.0000E+00
       1.5000       2.5000      -3.5000   83.500  0.10000  1.54647E-12  1.10000E-17  1.0000E+00  1.10000E-17  1.0000E+00  0.0000E+00  0.0000E+00  0.0000E+00  0.0000E+00  0.0000E+00
       2.5000       2.5000      -3.5000   83.500  0.30000  5.14503E-07  1.10000E-10  1.0000E+00  1.10000E-10  1.0000E+00  0.0000E+00  0.0000E+00  0.0000E+00  0.0000E+00  0.0000E+00
       3.5000       2.5000      -3.5000   83.500  0.10000  1.54647E-12  1.10000E-17  1.0000E+00  1.10000E-17  1.0000E+00  0.0000E+00  0.0000E+00  0.0000E+00  0.0000E+00  0.0000E+00
       4.5000       2.5000      -3.5000   83.500  0.10000  1.79995E-14  1.10000E-17  1.0000E+00  1.10000E-17  1.0000E+00  0.0000E+00  0.0000E+00  0.0000E+00  0.0000E+00  0.0000E+00
       0.5000       2.5000      -2.5000   82.500  0.10000  1.77081E-14  1.10000E-17  1.0000E+00  1.10000E-17  1.0000E+00  0.0000E+00  0.0000E+00  0.0000E+00  0.0000E+00  0.0000E+00
       1.5000       2.5000      -2.5000   82.500  0.10000  2.36626E-12  1.10000E-17  1.0000E+00  1.10000E-17  1.0000E+00  0.0000E+00  0.0000E+00  0.0000E+00  0.0000E+00  0.0000E+00
       2.5000       2.5000      -2.5000   82.500  0.30000  7.99948E-07  1.10000E-10  1.0000E+00  1.10000E-10  1.0000E+00  0.0000E+00  0.0000E+00  0.0000E+00  0.0000E+00  0.0000E+00
       3.5000       2.5000      -2.5000   82.500  0.10000  2.36626E-12  1.10000E-17  1.0000E+00  1.10000E-17  1.0000E+00  0.0000E+00  0.0000E+00  0.0000E+00  0.0000E+00  0.0000E+00
       4.5000       2.5000      -2.5000   82.500  0.10000  1.77081E-14  1.10000E-17  1.0000E+00  1.10000E-17  1.0000E+00  0.0000E+00  0.0000E+00  0.0000E+00  0.0000E+00  0.0000E+00
       0.5000       2.5000      -1.5000   81.500  0.10000  1.74583E-14  1.10000E-17  1.0000E+00  1.10000E-17  1.0000E+00  0.0000E+00  0.0000E+00  0.0000E+00  0.0000E+00  0.0000E+00
       1.5000       2.5000      -1.5000   81.500  0.10000  3.29838E-12  1.10000E-17  1.0000E+00  1.10000E-17  1.0000E+00  0.0000E+00  0.0000E+00  0.0000E+00  0.0000E+00  0.0000E+00
       2.5000       2.5000      -1.5000   81.500  0.30000  1.13096E-06  1.10000E-10  1.0000E+00  1.10000E-10  1.0000E+00  0.0000E+00  0.0000E+00  0.0000E+00  0.0000E+00  0.0000E+00
       3.5000       2.5000      -1.5000   81.500  0.10000  3.29838E-12  1.10000E-17  1.0000E+00  1.10000E-17  1.0000E+00  0.0000E+00  0.0000E+00  0.0000E+00  0.0000E+00  0.0000E+00
       4.5000       2.5000      -1.5000   81.500  0.10000  1.74583E-14  1.10000E-17  1.0000E+00  1.10000E-17  1.0000E+00  0.0000E+00  0.0000E+00  0.0000E+00  0.0000E+00  0.0000E+00
       0.5000       2.5000      -0.5000   80.500  0.10000  6.10238E-12  1.10000E-17  1.0000E+00  1.10000E-17  1.0000E+00  0.0000E+00  0.0000E+00  0.0000E+00  0.0000E+00  0.0000E+00
       1.5000       2.5000      -0.5000   80.500  0.10000  1.04922E-11  1.10000E-17  1.0000E+00  1.10000E-17  1.0000E+00  0.0000E+00  0.0000E+00  0.0000E+00  0.0000E+00  0.0000E+00
       2.5000       2.5000      -0.5000   80.500  0.30000  1.53160E-06  1.10000E-10  1.0000E+00  1.10000E-10  1.0000E+00  0.0000E+00  0.0000E+00  0.0000E+00  0.0000E+00  0.0000E+00
       3.5000       2.5000      -0.5000   80.500  0.10000  1.04922E-11  1.10000E-17  1.0000E+00  1.10000E-17  1.0000E+00  0.0000E+00  0.0000E+00  0.0000E+00  0.0000E+00  0.0000E+00
       4.5000       2.5000      -0.5000   80.500  0.10000  6.10238E-12  1.10000E-17  1.0000E+00  1.10000E-17  1.0000E+00  0.0000E+00  0.0000E+00  0.0000E+00  0.0000E+00  0.0000E+00
       0.5000       3.5000      -9.5000   89.500  0.10000 -1.11225E-07  1.10000E-12  1.0000E+00  1.10000E-12  1.0000E+00  0.0000E+00  0.0000E+00  0.0000E+00  0.0000E+00  0.0000E+00
       1.5000       3.5000      -9.5000   89.500  0.10000 -2.18474E-07  1.10000E-12  1.0000E+00  1.10000E-12  1.0000E+00  0.0000E+00  0.0000E+00  0.0000E+00  0.0000E+00  0.0000E+00
       2.5000       3.5000      -9.5000   89.500  0.30000 -1.35933E-06  1.10000E-10  1.0000E+00  1.10000E-10  1.0000E+00  0.0000E+00  0.0000E+00  0.0000E+00  0.0000E+00  0.0000E+00
       3.5000       3.5000      -9.5000   89.500  0.10000 -2.18474E-07  1.10000E-12  1.0000E+00  1.10000E-12  1.0000E+00  0.0000E+00  0.0000E+00  0.0000E+00  0.0000E+00  0.0000E+00
       4.5000       3.5000      -9.5000   89.500  0.10000 -1.11225E-07  1.10000E-12  1.0000E+00  1.10000E-12  1.0000E+00  0.0000E+00  0.0000E+00  0.0000E+00  0.0000E+00  0.0000E+00
       0.5000       3.5000      -8.5000   88.500  0.10000 -5.20272E-08  1.10000E-12  1.0000E+00  1.10000E-12  1.0000E+00  0.0000E+00  0.0000E+00  0.0000E+00  0.0000E+00  0.0000E+00
       1.5000       3.5000      -8.5000   88.500  0.10000 -1.33965E-07  1.10000E-12  1.0000E+00  1.10000E-12  1.0000E+00  0.0000E+00  0.0000E+00  0.0000E+00  0.0000E+00  0.0000E+00
       2.5000       3.5000      -8.5000   88.500  0.30000 -9.17549E-07  1.10000E-10  1.0000E+00  1.10000E-10  1.0000E+00  0.0000E+00  0.0000E+00  0.0000E+00  0.0000E+00  0.0000E+00
       3.5000       3.5000      -8.5000   88.500  0.10000 -1.33965E-07  1.10000E-12  1.0000E+00  1.10000E-12  1.0000E+00  0.0000E+00  0.0000E+00  0.0000E+00  0.0000E+00  0.0000E+00
       4.5000       3.5000      -8.5000   88.500  0.10000 -5.20272E-08  1.10000E-12  1.0000E+00  1.10000E-12  1.0000E+00  0.0000E+00  0.0000E+00  0.0000E+00  0.0000E+00  0.0000E+00
       0.5000       3.5000      -7.5000   87.500  0.10000 -2.45661E-08  1.10000E-12  1.0000E+00  1.10000E-12  1.0000E+00  0.0000E+00  0.0000E+00  0.0000E+00  0.0000E+00  0.0000E+00
       1.5000       3.5000      -7.5000   87.500  0.10000 -7.80713E-08  1.10000E-12  1.0000E+00  1.10000E-12  1.0000E+00  0.0000E+00  0.0000E+00  0.0000E+00  0.0000E+00  0.0000E+00
       2.5000       3.5000      -7.5000   87.500  0.30000 -5.61843E-07  1.10000E-10  1.0000E+00  1.10000E-10  1.0000E+00  0.0000E+00  0.0000E+00  0.0000E+00  0.0000E+00  0.0000E+00