Title="TOUGHREACT V3.30-OMP flowvector.tec: Liq & Gas Fluxes (kg/s/m^2), Pore Velocities (m/s), & Heat Fluxes (J/s/m2)"                                                                                                                                                                                                                                                                                                                                                                                                                                                                                                                                                                                                                                                                                                         
Variables= "X(m)"     "Y(m)"      "Z(m)"     "FluxLiq"   "FluxLiq_X"   "FluxLiq_Y"   "FluxLiq_Z"   "PorVelLiq"  "PorVelLiqX"  "PorVelLiqY"  "PorVelLiqZ"     "FluxGas"   "FluxGas_X"   "FluxGas_Y"   "FluxGas_Z"   "PorVelGas"  "PorVelGasX"  "PorVelGasY"  "PorVelGasZ"    "HeatFlux"  "HeatFlux_X"  "HeatFlux_Y"  "HeatFlux_Z"                                                                                                                                                                                                                                                                                                                                                                                                                                                                                                
Zone T= "5.00000000E-02 sec" I=     9 J=    10 K=    23 F=Point
  1.250000E+02  1.250000E+02 -5.425000E+03  3.488056E-07  0.000000E+00  0.000000E+00  3.488056E-07  1.920737E-09  0.000000E+00  0.000000E+00  1.920737E-09  0.000000E+00  0.000000E+00  0.000000E+00  0.000000E+00  0.000000E+00  0.000000E+00  0.000000E+00  0.000000E+00  3.906799E-01  0.000000E+00  0.000000E+00  3.906799E-01                                                                                                                                                                                                                                                                                                                                                                                                                                                                                              
  3.750000E+02  1.250000E+02 -5.425000E+03  3.488056E-07  0.000000E+00  0.000000E+00  3.488056E-07  1.920737E-09  0.000000E+00  0.000000E+00  1.920737E-09  0.000000E+00  0.000000E+00  0.000000E+00  0.000000E+00  0.000000E+00  0.000000E+00  0.000000E+00  0.000000E+00  3.906799E-01  0.000000E+00  0.000000E+00  3.906799E-01                                                                                                                                                                                                                                                                                                                                                                                                                                                                                              
  6.250000E+02  1.250000E+02 -5.425000E+03  3.488056E-07  0.000000E+00  0.000000E+00  3.488056E-07  1.920737E-09  0.000000E+00  0.000000E+00  1.920737E-09  0.000000E+00  0.000000E+00  0.000000E+00  0.000000E+00  0.000000E+00  0.000000E+00  0.000000E+00  0.000000E+00  3.906799E-01  0.000000E+00  0.000000E+00  3.906799E-01                                                                                                                                                                                                                                                                                                                                                                                                                                                                                              
  8.750000E+02  1.250000E+02 -5.425000E+03  3.488056E-07  0.000000E+00  0.000000E+00  3.488056E-07  1.920737E-09  0.000000E+00  0.000000E+00  1.920737E-09  0.000000E+00  0.000000E+00  0.000000E+00  0.000000E+00  0.000000E+00  0.000000E+00  0.000000E+00  0.000000E+00  3.906799E-01  0.000000E+00  0.000000E+00  3.906799E-01                                                                                                                                                                                                                                                                                                                                                                                                                                                                                              
  1.050000E+03  1.250000E+02 -5.425000E+03  3.488056E-07  0.000000E+00  0.000000E+00  3.488056E-07  1.920737E-09  0.000000E+00  0.000000E+00  1.920737E-09  0.000000E+00  0.000000E+00  0.000000E+00  0.000000E+00  0.000000E+00  0.000000E+00  0.000000E+00  0.000000E+00  3.906799E-01  0.000000E+00  0.000000E+00  3.906799E-01                                                                                                                                                                                                                                                                                                                                                                                                                                                                                              
  1.225000E+03  1.250000E+02 -5.425000E+03  3.488056E-07  0.000000E+00  0.000000E+00  3.488056E-07  1.920737E-09  0.000000E+00  0.000000E+00  1.920737E-09  0.000000E+00  0.000000E+00  0.000000E+00  0.000000E+00  0.000000E+00  0.000000E+00  0.000000E+00  0.000000E+00  3.906799E-01  0.000000E+00  0.000000E+00  3.906799E-01                                                                                                                                                                                                                                                                                                                                                                                                                                                                                              
  1.475000E+03  1.250000E+02 -5.425000E+03  3.488056E-07  0.000000E+00  0.000000E+00  3.488056E-07  1.920737E-09  0.000000E+00  0.000000E+00  1.920737E-09  0.000000E+00  0.000000E+00  0.000000E+00  0.000000E+00  0.000000E+00  0.000000E+00  0.000000E+00  0.000000E+00  3.906799E-01  0.000000E+00  0.000000E+00  3.906799E-01                                                                                                                                                                                                                                                                                                                                                                                                                                                                                              
  1.725000E+03  1.250000E+02 -5.425000E+03  3.488056E-07  0.000000E+00  0.000000E+00  3.488056E-07  1.920737E-09  0.000000E+00  0.000000E+00  1.920737E-09  0.000000E+00  0.000000E+00  0.000000E+00  0.000000E+00  0.000000E+00  0.000000E+00  0.000000E+00  0.000000E+00  3.906799E-01  0.000000E+00  0.000000E+00  3.906799E-01                                                                                                                                                                                                                                                                                                                                                                                                                                                                                              
  1.975000E+03  1.250000E+02 -5.425000E+03  3.488056E-07  0.000000E+00  0.000000E+00  3.488056E-07  1.920737E-09  0.000000E+00  0.000000E+00  1.920737E-09  0.000000E+00  0.000000E+00  0.000000E+00  0.000000E+00  0.000000E+00  0.000000E+00  0.000000E+00  0.000000E+00  3.906799E-01  0.000000E+00  0.000000E+00  3.906799E-01                                                                                                                                                                                                                                                                                                                                                                                                                                                                                              
  1.250000E+02  1.250000E+02 -5.225000E+03  6.713196E-07  0.000000E+00  0.000000E+00  6.713196E-07  3.684659E-09  0.000000E+00  0.000000E+00  3.684659E-09  0.000000E+00  0.000000E+00  0.000000E+00  0.000000E+00  0.000000E+00  0.000000E+00  0.000000E+00  0.000000E+00  7.485665E-01  0.000000E+00  0.000000E+00  7.485665E-01                                                                                                                                                                                                                                                                                                                                                                                                                                                                                              
  3.750000E+02  1.250000E+02 -5.225000E+03  6.713196E-07  0.000000E+00  0.000000E+00  6.713196E-07  3.684659E-09  0.000000E+00  0.000000E+00  3.684659E-09  0.000000E+00  0.000000E+00  0.000000E+00  0.000000E+00  0.000000E+00  0.000000E+00  0.000000E+00  0.000000E+00  7.485665E-01  0.000000E+00  0.000000E+00  7.485665E-01                                                                                                                                                                                                                                                                                                                                                                                                                                                                                              
  6.250000E+02  1.250000E+02 -5.225000E+03  6.713196E-07  0.000000E+00  0.000000E+00  6.713196E-07  3.684659E-09  0.000000E+00  0.000000E+00  3.684659E-09  0.000000E+00  0.000000E+00  0.000000E+00  0.000000E+00  0.000000E+00  0.000000E+00  0.000000E+00  0.000000E+00  7.485665E-01  0.000000E+00  0.000000E+00  7.485665E-01                                                                                                                                                                                                                                                                                                                                                                                                                                                                                              
  8.750000E+02  1.250000E+02 -5.225000E+03  6.713196E-07  0.000000E+00  0.000000E+00  6.713196E-07  3.684659E-09  0.000000E+00  0.000000E+00  3.684659E-09  0.000000E+00  0.000000E+00  0.000000E+00  0.000000E+00  0.000000E+00  0.000000E+00  0.000000E+00  0.000000E+00  7.485665E-01  0.000000E+00  0.000000E+00  7.485665E-01                                                                                                                                                                                                                                                                                                                                                                                                                                                                                              
  1.050000E+03  1.250000E+02 -5.225000E+03  6.713196E-07  0.000000E+00  0.000000E+00  6.713196E-07  3.684659E-09  0.000000E+00  0.000000E+00  3.684659E-09  0.000000E+00  0.000000E+00  0.000000E+00  0.000000E+00  0.000000E+00  0.000000E+00  0.000000E+00  0.000000E+00  7.485665E-01  0.000000E+00  0.000000E+00  7.485665E-01                                                                                                                                                                                                                                                                                                                                                                                                                                                                                              
  1.225000E+03  1.250000E+02 -5.225000E+03  6.713196E-07  0.000000E+00  0.000000E+00  6.713196E-07  3.684659E-09  0.000000E+00  0.000000E+00  3.684659E-09  0.000000E+00  0.000000E+00  0.000000E+00  0.000000E+00  0.000000E+00  0.000000E+00  0.000000E+00  0.000000E+00  7.485665E-01  0.000000E+00  0.000000E+00  7.485665E-01                                                                                                                                                                                                                                                                                                                                                                                                                                                                                              
  1.475000E+03  1.250000E+02 -5.225000E+03  6.713196E-07  0.000000E+00  0.000000E+00  6.713196E-07  3.684659E-09  0.000000E+00  0.000000E+00  3.684659E-09  0.000000E+00  0.000000E+00  0.000000E+00  0.000000E+00  0.000000E+00  0.000000E+00  0.000000E+00  0.000000E+00  7.485665E-01  0.000000E+00  0.000000E+00  7.485665E-01                                                                                                                                                                                                                                                                                                                                                                                                                                                                                              
  1.725000E+03  1.250000E+02 -5.225000E+03  6.713196E-07  0.000000E+00  0.000000E+00  6.713196E-07  3.684659E-09  0.000000E+00  0.000000E+00  3.684659E-09  0.000000E+00  0.000000E+00  0.000000E+00  0.000000E+00  0.000000E+00  0.000000E+00  0.000000E+00  0.000000E+00  7.485665E-01  0.000000E+00  0.000000E+00  7.485665E-01                                                                                                                                                                                                                                                                                                                                                                                                                                                                                              
  1.975000E+03  1.250000E+02 -5.225000E+03  6.713196E-07  0.000000E+00  0.000000E+00  6.713196E-07  3.684659E-09  0.000000E+00  0.000000E+00  3.684659E-09  0.000000E+00  0.000000E+00  0.000000E+00  0.000000E+00  0.000000E+00  0.000000E+00  0.000000E+00  0.000000E+00  7.485665E-01  0.000000E+00  0.000000E+00  7.485665E-01                                                                                                                                                                                                                                                                                                                                                                                                                                                                                              
  1.250000E+02  1.250000E+02 -4.975000E+03  6.153836E-07  0.000000E+00  0.000000E+00  6.153836E-07  3.353992E-09  0.000000E+00  0.000000E+00  3.353992E-09  0.000000E+00  0.000000E+00  0.000000E+00  0.000000E+00  0.000000E+00  0.000000E+00  0.000000E+00  0.000000E+00  6.796500E-01  0.000000E+00  0.000000E+00  6.796500E-01                                                                                                                                                                                                                                                                                                                                                                                                                                                                                              
  3.750000E+02  1.250000E+02 -4.975000E+03  6.153836E-07  0.000000E+00  0.000000E+00  6.153836E-07  3.353992E-09  0.000000E+00  0.000000E+00  3.353992E-09  0.000000E+00  0.000000E+00  0.000000E+00  0.000000E+00  0.000000E+00  0.000000E+00  0.000000E+00  0.000000E+00  6.796500E-01  0.000000E+00  0.000000E+00  6.796500E-01                                                                                                                                                                                                                                                                                                                                                                                                                                                                                              
  6.250000E+02  1.250000E+02 -4.975000E+03  6.153836E-07  0.000000E+00  0.000000E+00  6.153836E-07  3.353992E-09  0.000000E+00  0.000000E+00  3.353992E-09  0.000000E+00  0.000000E+00  0.000000E+00  0.000000E+00  0.000000E+00  0.000000E+00  0.000000E+00  0.000000E+00  6.796500E-01  0.000000E+00  0.000000E+00  6.796500E-01                                                                                                                                                                                                                                                                                                                                                                                                                                                                                              
  8.750000E+02  1.250000E+02 -4.975000E+03  6.153836E-07  0.000000E+00  0.000000E+00  6.153836E-07  3.353992E-09  0.000000E+00  0.000000E+00  3.353992E-09  0.000000E+00  0.000000E+00  0.000000E+00  0.000000E+00  0.000000E+00  0.000000E+00  0.000000E+00  0.000000E+00  6.796500E-01  0.000000E+00  0.000000E+00  6.796500E-01                                                                                                                                                                                                                                                                                                                                                                                                                                                                                              
  1.050000E+03  1.250000E+02 -4.975000E+03  6.153836E-07  0.000000E+00  0.000000E+00  6.153836E-07  3.353992E-09  0.000000E+00  0.000000E+00  3.353992E-09  0.000000E+00  0.000000E+00  0.000000E+00  0.000000E+00  0.000000E+00  0.000000E+00  0.000000E+00  0.000000E+00  6.796500E-01  0.000000E+00  0.000000E+00  6.796500E-01                                                                                                                                                                                                                                                                                                                                                                                                                                                                                              
  1.225000E+03  1.250000E+02 -4.975000E+03  6.153836E-07  0.000000E+00  0.000000E+00  6.153836E-07  3.353992E-09  0.000000E+00  0.000000E+00  3.353992E-09  0.000000E+00  0.000000E+00  0.000000E+00  0.000000E+00  0.000000E+00  0.000000E+00  0.000000E+00  0.000000E+00  6.796500E-01  0.000000E+00  0.000000E+00  6.796500E-01                                                                                                                                                                                                                                                                                                                                                                                                                                                                                              
  1.475000E+03  1.250000E+02 -4.975000E+03  6.153836E-07  0.000000E+00  0.000000E+00  6.153836E-07  3.353992E-09  0.000000E+00  0.000000E+00  3.353992E-09  0.000000E+00  0.000000E+00  0.000000E+00  0.000000E+00  0.000000E+00  0.000000E+00  0.000000E+00  0.000000E+00  6.796500E-01  0.000000E+00  0.000000E+00  6.796500E-01                                                                                                                                                                                                                                                                                                                                                                                                                                                                                              
  1.725000E+03  1.250000E+02 -4.975000E+03  6.153836E-07  0.000000E+00  0.000000E+00  6.153836E-07  3.353992E-09  0.000000E+00  0.000000E+00  3.353992E-09  0.000000E+00  0.000000E+00  0.000000E+00  0.000000E+00  0.000000E+00  0.000000E+00  0.000000E+00  0.000000E+00  6.796500E-01  0.000000E+00  0.000000E+00  6.796500E-01                                                                                                                                                                                                                                                                                                                                                                                                                                                                                              
  1.975000E+03  1.250000E+02 -4.975000E+03  6.153836E-07  0.000000E+00  0.000000E+00  6.153836E-07  3.353992E-09  0.000000E+00  0.000000E+00  3.353992E-09  0.000000E+00  0.000000E+00  0.000000E+00  0.000000E+00  0.000000E+00  0.000000E+00  0.000000E+00  0.000000E+00  6.796500E-01  0.000000E+00  0.000000E+00  6.796500E-01                                                                                                                                                                                                                                                                                                                                                                                                                                                                                              
  1.250000E+02  1.250000E+02 -4.725000E+03  6.663149E-07  0.000000E+00  0.000000E+00  6.663149E-07  3.605334E-09  0.000000E+00  0.000000E+00  3.605334E-09  0.000000E+00  0.000000E+00  0.000000E+00  0.000000E+00  0.000000E+00  0.000000E+00  0.000000E+00  0.000000E+00  6.936250E-01  0.000000E+00  0.000000E+00  6.936250E-01                                                                                                                                                                                                                                                                                                                                                                                                                                                                                              
  3.750000E+02  1.250000E+02 -4.725000E+03  6.663149E-07  0.000000E+00  0.000000E+00  6.663149E-07  3.605334E-09  0.000000E+00  0.000000E+00  3.605334E-09  0.000000E+00  0.000000E+00  0.000000E+00  0.000000E+00  0.000000E+00  0.000000E+00  0.000000E+00  0.000000E+00  6.936250E-01  0.000000E+00  0.000000E+00  6.936250E-01                                                                                                                                                                                                                                                                                                                                                                                                                                                                                              
  6.250000E+02  1.250000E+02 -4.725000E+03  6.663150E-07  8.218630E-21  0.000000E+00  6.663150E-07  3.605335E-09  4.446051E-23  0.000000E+00  3.605335E-09  0.000000E+00  0.000000E+00  0.000000E+00  0.000000E+00  0.000000E+00  0.000000E+00  0.000000E+00  0.000000E+00  6.936251E-01  6.258114E-15  0.000000E+00  6.936251E-01                                                                                                                                                                                                                                                                                                                                                                                                                                                                                              
  8.750000E+02  1.250000E+02 -4.725000E+03  6.663239E-07  9.357497E-19  0.000000E+00  6.663239E-07  3.605383E-09  5.062147E-21  0.000000E+00  3.605383E-09  0.000000E+00  0.000000E+00  0.000000E+00  0.000000E+00  0.000000E+00  0.000000E+00  0.000000E+00  0.000000E+00  6.936318E-01  7.129370E-13  0.000000E+00  6.936318E-01                                                                                                                                                                                                                                                                                                                                                                                                                                                                                              
  1.050000E+03  1.250000E+02 -4.725000E+03  6.673356E-07  0.000000E+00  0.000000E+00  6.673356E-07  3.610842E-09  0.000000E+00  0.000000E+00  3.610842E-09  0.000000E+00  0.000000E+00  0.000000E+00  0.000000E+00  0.000000E+00  0.000000E+00  0.000000E+00  0.000000E+00  6.944025E-01  0.000000E+00  0.000000E+00  6.944025E-01                                                                                                                                                                                                                                                                                                                                                                                                                                                                                              
  1.225000E+03  1.250000E+02 -4.725000E+03  6.663239E-07 -9.357497E-19  0.000000E+00  6.663239E-07  3.605383E-09 -5.062147E-21  0.000000E+00  3.605383E-09  0.000000E+00  0.000000E+00  0.000000E+00  0.000000E+00  0.000000E+00  0.000000E+00  0.000000E+00  0.000000E+00  6.936318E-01 -7.129370E-13  0.000000E+00  6.936318E-01                                                                                                                                                                                                                                                                                                                                                                                                                                                                                              
  1.475000E+03  1.250000E+02 -4.725000E+03  6.663150E-07 -8.218630E-21  0.000000E+00  6.663150E-07  3.605335E-09 -4.446051E-23  0.000000E+00  3.605335E-09  0.000000E+00  0.000000E+00  0.000000E+00  0.000000E+00  0.000000E+00  0.000000E+00  0.000000E+00  0.000000E+00  6.936251E-01 -6.258114E-15  0.000000E+00  6.936251E-01                                                                                                                                                                                                                                                                                                                                                                                                                                                                                              
  1.725000E+03  1.250000E+02 -4.725000E+03  6.663149E-07  0.000000E+00  0.000000E+00  6.663149E-07  3.605334E-09  0.000000E+00  0.000000E+00  3.605334E-09  0.000000E+00  0.000000E+00  0.000000E+00  0.000000E+00  0.000000E+00  0.000000E+00  0.000000E+00  0.000000E+00  6.936250E-01  0.000000E+00  0.000000E+00  6.936250E-01                                                                                                                                                                                                                                                                                                                                                                                                                                                                                              