Title="TOUGHREACT V3.30-OMP flowvector.tec: Liq & Gas Fluxes (kg/s/m^2), Pore Velocities (m/s), & Heat Fluxes (J/s/m2)"                                                                                                                                                                                                                                                                                                                                                                                                                                                                                                                                                                                                                                                                                                         
Variables= "X(m)"     "Y(m)"      "Z(m)"     "FluxLiq"   "FluxLiq_X"   "FluxLiq_Y"   "FluxLiq_Z"   "PorVelLiq"  "PorVelLiqX"  "PorVelLiqY"  "PorVelLiqZ"     "FluxGas"   "FluxGas_X"   "FluxGas_Y"   "FluxGas_Z"   "PorVelGas"  "PorVelGasX"  "PorVelGasY"  "PorVelGasZ"    "HeatFlux"  "HeatFlux_X"  "HeatFlux_Y"  "HeatFlux_Z"                                                                                                                                                                                                                                                                                                                                                                                                                                                                                                
Zone T= "3.15569000E+08 sec" I=     9 J=    10 K=    23 F=Point
  1.250000E+02  1.250000E+02 -5.425000E+03  9.909173E-08 -4.156585E-10 -3.050039E-10  9.909038E-08  5.475370E-10 -2.303765E-12 -1.690468E-12  5.475296E-10  0.000000E+00  0.000000E+00  0.000000E+00  0.000000E+00  0.000000E+00  0.000000E+00  0.000000E+00  0.000000E+00  1.716955E-01 -3.609250E-04 -2.648414E-04  1.716949E-01                                                                                                                                                                                                                                                                                                                                                                                                                                                                                              
  3.750000E+02  1.250000E+02 -5.425000E+03  9.885992E-08 -9.864559E-10 -2.961535E-10  9.885456E-08  5.462556E-10 -5.467372E-12 -1.641413E-12  5.462258E-10  0.000000E+00  0.000000E+00  0.000000E+00  0.000000E+00  0.000000E+00  0.000000E+00  0.000000E+00  0.000000E+00  1.714926E-01 -8.565581E-04 -2.571548E-04  1.714902E-01                                                                                                                                                                                                                                                                                                                                                                                                                                                                                              
  6.250000E+02  1.250000E+02 -5.425000E+03  9.855289E-08 -9.816739E-10 -2.561989E-10  9.854766E-08  5.445581E-10 -5.440861E-12 -1.419965E-12  5.445290E-10  0.000000E+00  0.000000E+00  0.000000E+00  0.000000E+00  0.000000E+00  0.000000E+00  0.000000E+00  0.000000E+00  1.712261E-01 -8.524050E-04 -2.224617E-04  1.712239E-01                                                                                                                                                                                                                                                                                                                                                                                                                                                                                              
  8.750000E+02  1.250000E+02 -5.425000E+03  9.835354E-08 -4.826797E-10 -2.162654E-10  9.835212E-08  5.434558E-10 -2.675218E-12 -1.198635E-12  5.434479E-10  0.000000E+00  0.000000E+00  0.000000E+00  0.000000E+00  0.000000E+00  0.000000E+00  0.000000E+00  0.000000E+00  1.710548E-01 -4.191198E-04 -1.877861E-04  1.710542E-01                                                                                                                                                                                                                                                                                                                                                                                                                                                                                              
  1.050000E+03  1.250000E+02 -5.425000E+03  9.832951E-08  5.401260E-16 -2.110686E-10  9.832928E-08  5.433228E-10  2.993593E-18 -1.169832E-12  5.433216E-10  0.000000E+00  0.000000E+00  0.000000E+00  0.000000E+00  0.000000E+00  0.000000E+00  0.000000E+00  0.000000E+00  1.710344E-01  1.543159E-09 -1.832755E-04  1.710343E-01                                                                                                                                                                                                                                                                                                                                                                                                                                                                                              
  1.225000E+03  1.250000E+02 -5.425000E+03  9.835354E-08  4.826809E-10 -2.162653E-10  9.835212E-08  5.434558E-10  2.675224E-12 -1.198634E-12  5.434479E-10  0.000000E+00  0.000000E+00  0.000000E+00  0.000000E+00  0.000000E+00  0.000000E+00  0.000000E+00  0.000000E+00  1.710548E-01  4.191210E-04 -1.877870E-04  1.710542E-01                                                                                                                                                                                                                                                                                                                                                                                                                                                                                              
  1.475000E+03  1.250000E+02 -5.425000E+03  9.855289E-08  9.816748E-10 -2.561990E-10  9.854766E-08  5.445581E-10  5.440867E-12 -1.419965E-12  5.445290E-10  0.000000E+00  0.000000E+00  0.000000E+00  0.000000E+00  0.000000E+00  0.000000E+00  0.000000E+00  0.000000E+00  1.712261E-01  8.524062E-04 -2.224613E-04  1.712239E-01                                                                                                                                                                                                                                                                                                                                                                                                                                                                                              
  1.725000E+03  1.250000E+02 -5.425000E+03  9.885992E-08  9.864565E-10 -2.961534E-10  9.885456E-08  5.462556E-10  5.467376E-12 -1.641413E-12  5.462258E-10  0.000000E+00  0.000000E+00  0.000000E+00  0.000000E+00  0.000000E+00  0.000000E+00  0.000000E+00  0.000000E+00  1.714926E-01  8.565590E-04 -2.571560E-04  1.714902E-01                                                                                                                                                                                                                                                                                                                                                                                                                                                                                              
  1.975000E+03  1.250000E+02 -5.425000E+03  9.909173E-08  4.156589E-10 -3.050040E-10  9.909038E-08  5.475370E-10  2.303766E-12 -1.690468E-12  5.475296E-10  0.000000E+00  0.000000E+00  0.000000E+00  0.000000E+00  0.000000E+00  0.000000E+00  0.000000E+00  0.000000E+00  1.716955E-01  3.609244E-04 -2.648416E-04  1.716949E-01                                                                                                                                                                                                                                                                                                                                                                                                                                                                                              
  1.250000E+02  1.250000E+02 -5.225000E+03  3.600731E-07 -5.887389E-10 -4.383056E-10  3.600723E-07  1.979079E-09 -3.241504E-12 -2.413243E-12  1.979075E-09  0.000000E+00  0.000000E+00  0.000000E+00  0.000000E+00  0.000000E+00  0.000000E+00  0.000000E+00  0.000000E+00  4.777045E-01 -4.934410E-04 -3.673586E-04  4.777041E-01                                                                                                                                                                                                                                                                                                                                                                                                                                                                                              
  3.750000E+02  1.250000E+02 -5.225000E+03  3.590771E-07 -1.384023E-09 -4.351629E-10  3.590742E-07  1.973603E-09 -7.620203E-12 -2.395936E-12  1.973586E-09  0.000000E+00  0.000000E+00  0.000000E+00  0.000000E+00  0.000000E+00  0.000000E+00  0.000000E+00  0.000000E+00  4.768644E-01 -1.159985E-03 -3.647135E-04  4.768628E-01                                                                                                                                                                                                                                                                                                                                                                                                                                                                                              
  6.250000E+02  1.250000E+02 -5.225000E+03  3.577761E-07 -1.348014E-09 -3.582122E-10  3.577733E-07  1.966448E-09 -7.421933E-12 -1.972253E-12  1.966433E-09  0.000000E+00  0.000000E+00  0.000000E+00  0.000000E+00  0.000000E+00  0.000000E+00  0.000000E+00  0.000000E+00  4.757712E-01 -1.129790E-03 -3.002088E-04  4.757697E-01                                                                                                                                                                                                                                                                                                                                                                                                                                                                                              
  8.750000E+02  1.250000E+02 -5.225000E+03  3.569857E-07 -6.481215E-10 -2.788498E-10  3.569850E-07  1.962101E-09 -3.568441E-12 -1.535296E-12  1.962097E-09  0.000000E+00  0.000000E+00  0.000000E+00  0.000000E+00  0.000000E+00  0.000000E+00  0.000000E+00  0.000000E+00  4.751105E-01 -5.431904E-04 -2.336887E-04  4.751101E-01                                                                                                                                                                                                                                                                                                                                                                                                                                                                                              
  1.050000E+03  1.250000E+02 -5.225000E+03  3.568969E-07  6.411602E-16 -2.682310E-10  3.568968E-07  1.961613E-09  3.530111E-18 -1.476830E-12  1.961612E-09  0.000000E+00  0.000000E+00  0.000000E+00  0.000000E+00  0.000000E+00  0.000000E+00  0.000000E+00  0.000000E+00  4.750371E-01  5.712515E-10 -2.247865E-04  4.750371E-01                                                                                                                                                                                                                                                                                                                                                                                                                                                                                              
  1.225000E+03  1.250000E+02 -5.225000E+03  3.569857E-07  6.481226E-10 -2.788499E-10  3.569850E-07  1.962101E-09  3.568447E-12 -1.535296E-12  1.962097E-09  0.000000E+00  0.000000E+00  0.000000E+00  0.000000E+00  0.000000E+00  0.000000E+00  0.000000E+00  0.000000E+00  4.751105E-01  5.431914E-04 -2.336888E-04  4.751101E-01                                                                                                                                                                                                                                                                                                                                                                                                                                                                                              
  1.475000E+03  1.250000E+02 -5.225000E+03  3.577761E-07  1.348015E-09 -3.582122E-10  3.577733E-07  1.966448E-09  7.421938E-12 -1.972253E-12  1.966433E-09  0.000000E+00  0.000000E+00  0.000000E+00  0.000000E+00  0.000000E+00  0.000000E+00  0.000000E+00  0.000000E+00  4.757712E-01  1.129791E-03 -3.002088E-04  4.757697E-01                                                                                                                                                                                                                                                                                                                                                                                                                                                                                              
  1.725000E+03  1.250000E+02 -5.225000E+03  3.590771E-07  1.384024E-09 -4.351629E-10  3.590742E-07  1.973603E-09  7.620207E-12 -2.395936E-12  1.973586E-09  0.000000E+00  0.000000E+00  0.000000E+00  0.000000E+00  0.000000E+00  0.000000E+00  0.000000E+00  0.000000E+00  4.768644E-01  1.159986E-03 -3.647136E-04  4.768628E-01                                                                                                                                                                                                                                                                                                                                                                                                                                                                                              
  1.975000E+03  1.250000E+02 -5.225000E+03  3.600731E-07  5.887390E-10 -4.383056E-10  3.600723E-07  1.979079E-09  3.241505E-12 -2.413243E-12  1.979075E-09  0.000000E+00  0.000000E+00  0.000000E+00  0.000000E+00  0.000000E+00  0.000000E+00  0.000000E+00  0.000000E+00  4.777045E-01  4.934411E-04 -3.673585E-04  4.777041E-01                                                                                                                                                                                                                                                                                                                                                                                                                                                                                              
  1.250000E+02  1.250000E+02 -4.975000E+03  6.434876E-07 -1.302168E-09 -9.870875E-10  6.434855E-07  3.513981E-09 -7.114868E-12 -5.393315E-12  3.513970E-09  0.000000E+00  0.000000E+00  0.000000E+00  0.000000E+00  0.000000E+00  0.000000E+00  0.000000E+00  0.000000E+00  6.993566E-01 -1.039121E-03 -7.879141E-04  6.993554E-01                                                                                                                                                                                                                                                                                                                                                                                                                                                                                              
  3.750000E+02  1.250000E+02 -4.975000E+03  6.408886E-07 -3.026351E-09 -1.071138E-09  6.408805E-07  3.499693E-09 -1.653551E-11 -5.852529E-12  3.499649E-09  0.000000E+00  0.000000E+00  0.000000E+00  0.000000E+00  0.000000E+00  0.000000E+00  0.000000E+00  0.000000E+00  6.981765E-01 -2.411781E-03 -8.515847E-04  6.981718E-01                                                                                                                                                                                                                                                                                                                                                                                                                                                                                              
  6.250000E+02  1.250000E+02 -4.975000E+03  6.372854E-07 -2.827862E-09 -8.033573E-10  6.372786E-07  3.479791E-09 -1.545093E-11 -4.389392E-12  3.479754E-09  0.000000E+00  0.000000E+00  0.000000E+00  0.000000E+00  0.000000E+00  0.000000E+00  0.000000E+00  0.000000E+00  6.975258E-01 -2.248395E-03 -6.350398E-04  6.975219E-01                                                                                                                                                                                                                                                                                                                                                                                                                                                                                              
  8.750000E+02  1.250000E+02 -4.975000E+03  6.353017E-07 -1.285391E-09 -5.137576E-10  6.353002E-07  3.468755E-09 -7.023122E-12 -2.807064E-12  3.468747E-09  0.000000E+00  0.000000E+00  0.000000E+00  0.000000E+00  0.000000E+00  0.000000E+00  0.000000E+00  0.000000E+00  6.979204E-01 -1.018887E-03 -4.035545E-04  6.979195E-01                                                                                                                                                                                                                                                                                                                                                                                                                                                                                              
  1.050000E+03  1.250000E+02 -4.975000E+03  6.351140E-07  4.704649E-16 -4.708320E-10  6.351138E-07  3.467699E-09  2.570520E-18 -2.572527E-12  3.467698E-09  0.000000E+00  0.000000E+00  0.000000E+00  0.000000E+00  0.000000E+00  0.000000E+00  0.000000E+00  0.000000E+00  6.980748E-01  5.260732E-10 -3.690802E-04  6.980748E-01                                                                                                                                                                                                                                                                                                                                                                                                                                                                                              
  1.225000E+03  1.250000E+02 -4.975000E+03  6.353017E-07  1.285391E-09 -5.137576E-10  6.353002E-07  3.468755E-09  7.023126E-12 -2.807064E-12  3.468747E-09  0.000000E+00  0.000000E+00  0.000000E+00  0.000000E+00  0.000000E+00  0.000000E+00  0.000000E+00  0.000000E+00  6.979204E-01  1.018888E-03 -4.035546E-04  6.979195E-01                                                                                                                                                                                                                                                                                                                                                                                                                                                                                              
  1.475000E+03  1.250000E+02 -4.975000E+03  6.372854E-07  2.827862E-09 -8.033573E-10  6.372786E-07  3.479791E-09  1.545093E-11 -4.389391E-12  3.479754E-09  0.000000E+00  0.000000E+00  0.000000E+00  0.000000E+00  0.000000E+00  0.000000E+00  0.000000E+00  0.000000E+00  6.975258E-01  2.248395E-03 -6.350399E-04  6.975219E-01                                                                                                                                                                                                                                                                                                                                                                                                                                                                                              
  1.725000E+03  1.250000E+02 -4.975000E+03  6.408886E-07  3.026352E-09 -1.071138E-09  6.408805E-07  3.499693E-09  1.653551E-11 -5.852529E-12  3.499649E-09  0.000000E+00  0.000000E+00  0.000000E+00  0.000000E+00  0.000000E+00  0.000000E+00  0.000000E+00  0.000000E+00  6.981765E-01  2.411781E-03 -8.515848E-04  6.981718E-01                                                                                                                                                                                                                                                                                                                                                                                                                                                                                              
  1.975000E+03  1.250000E+02 -4.975000E+03  6.434876E-07  1.302169E-09 -9.870876E-10  6.434855E-07  3.513981E-09  7.114868E-12 -5.393315E-12  3.513970E-09  0.000000E+00  0.000000E+00  0.000000E+00  0.000000E+00  0.000000E+00  0.000000E+00  0.000000E+00  0.000000E+00  6.993566E-01  1.039121E-03 -7.879140E-04  6.993554E-01                                                                                                                                                                                                                                                                                                                                                                                                                                                                                              
  1.250000E+02  1.250000E+02 -4.725000E+03  8.265297E-07 -2.923205E-09 -2.222631E-09  8.265215E-07  4.481218E-09 -1.586068E-11 -1.205969E-11  4.481173E-09  0.000000E+00  0.000000E+00  0.000000E+00  0.000000E+00  0.000000E+00  0.000000E+00  0.000000E+00  0.000000E+00  8.764512E-01 -1.295184E-03 -1.024666E-03  8.764496E-01                                                                                                                                                                                                                                                                                                                                                                                                                                                                                              
  3.750000E+02  1.250000E+02 -4.725000E+03  8.056138E-07 -6.841300E-09 -2.978225E-09  8.055792E-07  4.349908E-09 -3.711597E-11 -1.615685E-11  4.349720E-09  0.000000E+00  0.000000E+00  0.000000E+00  0.000000E+00  0.000000E+00  0.000000E+00  0.000000E+00  0.000000E+00  1.108260E+00 -2.003277E-03 -2.869653E-04  1.108258E+00                                                                                                                                                                                                                                                                                                                                                                                                                                                                                              
  6.250000E+02  1.250000E+02 -4.725000E+03  7.689676E-07 -6.094056E-09 -1.984625E-09  7.689409E-07  4.126234E-09 -3.305719E-11 -1.076397E-11  4.126088E-09  0.000000E+00  0.000000E+00  0.000000E+00  0.000000E+00  0.000000E+00  0.000000E+00  0.000000E+00  0.000000E+00  1.527458E+00 -3.563893E-04  8.567536E-04  1.527458E+00                                                                                                                                                                                                                                                                                                                                                                                                                                                                                              
  8.750000E+02  1.250000E+02 -4.725000E+03  7.477634E-07 -2.469690E-09 -9.173829E-10  7.477588E-07  3.999589E-09 -1.339483E-11 -4.974759E-12  3.999564E-09  0.000000E+00  0.000000E+00  0.000000E+00  0.000000E+00  0.000000E+00  0.000000E+00  0.000000E+00  0.000000E+00  1.793265E+00  5.672641E-04  1.093091E-03  1.793264E+00                                                                                                                                                                                                                                                                                                                                                                                                                                                                                              
  1.050000E+03  1.250000E+02 -4.725000E+03  7.476277E-07  4.383810E-16 -7.101246E-10  7.476273E-07  3.998626E-09  2.377516E-18 -3.850776E-12  3.998624E-09  0.000000E+00  0.000000E+00  0.000000E+00  0.000000E+00  0.000000E+00  0.000000E+00  0.000000E+00  0.000000E+00  1.796603E+00 -1.688619E-09  1.004526E-03  1.796603E+00                                                                                                                                                                                                                                                                                                                                                                                                                                                                                              
  1.225000E+03  1.250000E+02 -4.725000E+03  7.477634E-07  2.469690E-09 -9.173831E-10  7.477588E-07  3.999589E-09  1.339484E-11 -4.974759E-12  3.999564E-09  0.000000E+00  0.000000E+00  0.000000E+00  0.000000E+00  0.000000E+00  0.000000E+00  0.000000E+00  0.000000E+00  1.793265E+00 -5.672637E-04  1.093091E-03  1.793264E+00                                                                                                                                                                                                                                                                                                                                                                                                                                                                                              
  1.475000E+03  1.250000E+02 -4.725000E+03  7.689676E-07  6.094056E-09 -1.984625E-09  7.689409E-07  4.126234E-09  3.305719E-11 -1.076397E-11  4.126088E-09  0.000000E+00  0.000000E+00  0.000000E+00  0.000000E+00  0.000000E+00  0.000000E+00  0.000000E+00  0.000000E+00  1.527458E+00  3.563912E-04  8.567526E-04  1.527458E+00                                                                                                                                                                                                                                                                                                                                                                                                                                                                                              
  1.725000E+03  1.250000E+02 -4.725000E+03  8.056138E-07  6.841301E-09 -2.978225E-09  8.055792E-07  4.349908E-09  3.711597E-11 -1.615685E-11  4.349720E-09  0.000000E+00  0.000000E+00  0.000000E+00  0.000000E+00  0.000000E+00  0.000000E+00  0.000000E+00  0.000000E+00  1.108260E+00  2.003278E-03 -2.869652E-04  1.108258E+00                                                                                                                                                                                                                                                                                                                                                                                                                                                                                              