Title="TOUGHREACT V3.30-OMP flowvector.tec: Liq & Gas Fluxes (kg/s/m^2), Pore Velocities (m/s), & Heat Fluxes (J/s/m2)"                                                                                                                                                                                                                                                                                                                                                                                                                                                                                                                                                                                                                                                                                                         
Variables= "X(m)"     "Y(m)"      "Z(m)"     "FluxLiq"   "FluxLiq_X"   "FluxLiq_Y"   "FluxLiq_Z"   "PorVelLiq"  "PorVelLiqX"  "PorVelLiqY"  "PorVelLiqZ"     "FluxGas"   "FluxGas_X"   "FluxGas_Y"   "FluxGas_Z"   "PorVelGas"  "PorVelGasX"  "PorVelGasY"  "PorVelGasZ"    "HeatFlux"  "HeatFlux_X"  "HeatFlux_Y"  "HeatFlux_Z"                                                                                                                                                                                                                                                                                                                                                                                                                                                                                                
Zone T= "1.00000000E+11 sec" I=     9 J=    10 K=    23 F=Point
  1.250000E+02  1.250000E+02 -5.425000E+03  3.291835E-09 -3.586315E-10  2.894389E-10 -3.259415E-09  1.787362E-11 -1.951897E-12  1.575389E-12 -1.769674E-11  0.000000E+00  0.000000E+00  0.000000E+00  0.000000E+00  0.000000E+00  0.000000E+00  0.000000E+00  0.000000E+00  5.900679E-02  5.936721E-04 -4.602402E-05  5.900378E-02                                                                                                                                                                                                                                                                                                                                                                                                                                                                                              
  3.750000E+02  1.250000E+02 -5.425000E+03  3.517330E-09 -8.387610E-10  2.944547E-10 -3.403144E-09  1.909834E-11 -4.564820E-12  1.602562E-12 -1.847541E-11  0.000000E+00  0.000000E+00  0.000000E+00  0.000000E+00  0.000000E+00  0.000000E+00  0.000000E+00  0.000000E+00  5.927894E-02  1.359494E-03 -5.987455E-05  5.926331E-02                                                                                                                                                                                                                                                                                                                                                                                                                                                                                              
  6.250000E+02  1.250000E+02 -5.425000E+03  3.665690E-09 -8.299823E-10  3.021375E-10 -3.557685E-09  1.990134E-11 -4.516695E-12  1.644206E-12 -1.931216E-11  0.000000E+00  0.000000E+00  0.000000E+00  0.000000E+00  0.000000E+00  0.000000E+00  0.000000E+00  0.000000E+00  5.954044E-02  1.306654E-03 -8.077671E-05  5.952605E-02                                                                                                                                                                                                                                                                                                                                                                                                                                                                                              
  8.750000E+02  1.250000E+02 -5.425000E+03  3.692347E-09 -4.114694E-10  3.088503E-10 -3.656327E-09  2.004249E-11 -2.239052E-12  1.680613E-12 -1.984600E-11  0.000000E+00  0.000000E+00  0.000000E+00  0.000000E+00  0.000000E+00  0.000000E+00  0.000000E+00  0.000000E+00  5.969082E-02  6.355628E-04 -9.863834E-05  5.968736E-02                                                                                                                                                                                                                                                                                                                                                                                                                                                                                              
  1.050000E+03  1.250000E+02 -5.425000E+03  3.681772E-09 -1.105480E-14  3.097571E-10 -3.668718E-09  1.998426E-11 -6.015368E-17  1.685532E-12 -1.991305E-11  0.000000E+00  0.000000E+00  0.000000E+00  0.000000E+00  0.000000E+00  0.000000E+00  0.000000E+00  0.000000E+00  5.970783E-02 -4.614286E-09 -1.010105E-04  5.970775E-02                                                                                                                                                                                                                                                                                                                                                                                                                                                                                              
  1.225000E+03  1.250000E+02 -5.425000E+03  3.692339E-09  4.114837E-10  3.088605E-10 -3.656317E-09  2.004245E-11  2.239130E-12  1.680668E-12 -1.984594E-11  0.000000E+00  0.000000E+00  0.000000E+00  0.000000E+00  0.000000E+00  0.000000E+00  0.000000E+00  0.000000E+00  5.969083E-02 -6.355572E-04 -9.863126E-05  5.968736E-02                                                                                                                                                                                                                                                                                                                                                                                                                                                                                              
  1.475000E+03  1.250000E+02 -5.425000E+03  3.665721E-09  8.300088E-10  3.021250E-10 -3.557712E-09  1.990151E-11  4.516839E-12  1.644138E-12 -1.931230E-11  0.000000E+00  0.000000E+00  0.000000E+00  0.000000E+00  0.000000E+00  0.000000E+00  0.000000E+00  0.000000E+00  5.954042E-02 -1.306661E-03 -8.078965E-05  5.952603E-02                                                                                                                                                                                                                                                                                                                                                                                                                                                                                              
  1.725000E+03  1.250000E+02 -5.425000E+03  3.517327E-09  8.387650E-10  2.944333E-10 -3.403141E-09  1.909832E-11  4.564842E-12  1.602446E-12 -1.847539E-11  0.000000E+00  0.000000E+00  0.000000E+00  0.000000E+00  0.000000E+00  0.000000E+00  0.000000E+00  0.000000E+00  5.927895E-02 -1.359514E-03 -5.986717E-05  5.926332E-02                                                                                                                                                                                                                                                                                                                                                                                                                                                                                              
  1.975000E+03  1.250000E+02 -5.425000E+03  3.291832E-09  3.586344E-10  2.894425E-10 -3.259411E-09  1.787360E-11  1.951912E-12  1.575408E-12 -1.769672E-11  0.000000E+00  0.000000E+00  0.000000E+00  0.000000E+00  0.000000E+00  0.000000E+00  0.000000E+00  0.000000E+00  5.900682E-02 -5.936755E-04 -4.600187E-05  5.900382E-02                                                                                                                                                                                                                                                                                                                                                                                                                                                                                              
  1.250000E+02  1.250000E+02 -5.225000E+03  1.156794E-08 -2.859379E-10  2.432523E-10 -1.156184E-08  6.241084E-11 -1.549594E-12  1.318354E-12 -6.237767E-11  0.000000E+00  0.000000E+00  0.000000E+00  0.000000E+00  0.000000E+00  0.000000E+00  0.000000E+00  0.000000E+00  2.118243E-01  9.435650E-04 -1.738940E-04  2.118221E-01                                                                                                                                                                                                                                                                                                                                                                                                                                                                                              
  3.750000E+02  1.250000E+02 -5.225000E+03  1.207304E-08 -6.517803E-10  2.473171E-10 -1.205290E-08  6.512827E-11 -3.531986E-12  1.340246E-12 -6.501861E-11  0.000000E+00  0.000000E+00  0.000000E+00  0.000000E+00  0.000000E+00  0.000000E+00  0.000000E+00  0.000000E+00  2.130479E-01  2.100373E-03 -1.943550E-04  2.130374E-01                                                                                                                                                                                                                                                                                                                                                                                                                                                                                              
  6.250000E+02  1.250000E+02 -5.225000E+03  1.256469E-08 -6.273194E-10  2.536616E-10 -1.254646E-08  6.777078E-11 -3.399103E-12  1.374453E-12 -6.767152E-11  0.000000E+00  0.000000E+00  0.000000E+00  0.000000E+00  0.000000E+00  0.000000E+00  0.000000E+00  0.000000E+00  2.141368E-01  1.954005E-03 -2.253757E-04  2.141277E-01                                                                                                                                                                                                                                                                                                                                                                                                                                                                                              
  8.750000E+02  1.250000E+02 -5.225000E+03  1.286375E-08 -3.078320E-10  2.597713E-10 -1.285744E-08  6.937656E-11 -1.667855E-12  1.407434E-12 -6.934223E-11  0.000000E+00  0.000000E+00  0.000000E+00  0.000000E+00  0.000000E+00  0.000000E+00  0.000000E+00  0.000000E+00  2.147692E-01  9.376174E-04 -2.536404E-04  2.147670E-01                                                                                                                                                                                                                                                                                                                                                                                                                                                                                              
  1.050000E+03  1.250000E+02 -5.225000E+03  1.290210E-08  1.678179E-15  2.607373E-10 -1.289946E-08  6.958231E-11  9.092098E-18  1.412653E-12 -6.956797E-11  0.000000E+00  0.000000E+00  0.000000E+00  0.000000E+00  0.000000E+00  0.000000E+00  0.000000E+00  0.000000E+00  2.148569E-01  6.345621E-10 -2.579203E-04  2.148568E-01                                                                                                                                                                                                                                                                                                                                                                                                                                                                                              
  1.225000E+03  1.250000E+02 -5.225000E+03  1.286374E-08  3.078271E-10  2.597784E-10 -1.285743E-08  6.937651E-11  1.667828E-12  1.407472E-12 -6.934218E-11  0.000000E+00  0.000000E+00  0.000000E+00  0.000000E+00  0.000000E+00  0.000000E+00  0.000000E+00  0.000000E+00  2.147692E-01 -9.376260E-04 -2.536391E-04  2.147670E-01                                                                                                                                                                                                                                                                                                                                                                                                                                                                                              
  1.475000E+03  1.250000E+02 -5.225000E+03  1.256472E-08  6.273349E-10  2.536759E-10 -1.254649E-08  6.777092E-11  3.399188E-12  1.374530E-12 -6.767166E-11  0.000000E+00  0.000000E+00  0.000000E+00  0.000000E+00  0.000000E+00  0.000000E+00  0.000000E+00  0.000000E+00  2.141368E-01 -1.954012E-03 -2.253791E-04  2.141277E-01                                                                                                                                                                                                                                                                                                                                                                                                                                                                                              
  1.725000E+03  1.250000E+02 -5.225000E+03  1.207304E-08  6.518072E-10  2.472897E-10 -1.205290E-08  6.512826E-11  3.532131E-12  1.340098E-12 -6.501860E-11  0.000000E+00  0.000000E+00  0.000000E+00  0.000000E+00  0.000000E+00  0.000000E+00  0.000000E+00  0.000000E+00  2.130479E-01 -2.100350E-03 -1.943635E-04  2.130374E-01                                                                                                                                                                                                                                                                                                                                                                                                                                                                                              
  1.975000E+03  1.250000E+02 -5.225000E+03  1.156795E-08  2.859426E-10  2.432384E-10 -1.156186E-08  6.241090E-11  1.549619E-12  1.318279E-12 -6.237774E-11  0.000000E+00  0.000000E+00  0.000000E+00  0.000000E+00  0.000000E+00  0.000000E+00  0.000000E+00  0.000000E+00  2.118243E-01 -9.435459E-04 -1.739082E-04  2.118221E-01                                                                                                                                                                                                                                                                                                                                                                                                                                                                                              
  1.250000E+02  1.250000E+02 -4.975000E+03  2.013485E-08 -2.795959E-10  1.776250E-10 -2.013213E-08  1.073616E-10 -1.494807E-12  9.497556E-13 -1.073470E-10  0.000000E+00  0.000000E+00  0.000000E+00  0.000000E+00  0.000000E+00  0.000000E+00  0.000000E+00  0.000000E+00  3.809265E-01  2.142355E-03 -5.288406E-04  3.809201E-01                                                                                                                                                                                                                                                                                                                                                                                                                                                                                              
  3.750000E+02  1.250000E+02 -4.975000E+03  2.107613E-08 -5.849020E-10  1.828808E-10 -2.106722E-08  1.123510E-10 -3.126740E-12  9.776684E-13 -1.123033E-10  0.000000E+00  0.000000E+00  0.000000E+00  0.000000E+00  0.000000E+00  0.000000E+00  0.000000E+00  0.000000E+00  3.846912E-01  4.404177E-03 -5.758035E-04  3.846656E-01                                                                                                                                                                                                                                                                                                                                                                                                                                                                                              
  6.250000E+02  1.250000E+02 -4.975000E+03  2.186707E-08 -5.119343E-10  1.913623E-10 -2.186023E-08  1.165425E-10 -2.736220E-12  1.022801E-12 -1.165059E-10  0.000000E+00  0.000000E+00  0.000000E+00  0.000000E+00  0.000000E+00  0.000000E+00  0.000000E+00  0.000000E+00  3.871092E-01  3.723493E-03 -6.457685E-04  3.870907E-01                                                                                                                                                                                                                                                                                                                                                                                                                                                                                              
  8.750000E+02  1.250000E+02 -4.975000E+03  2.235444E-08 -2.466302E-10  2.011328E-10 -2.235217E-08  1.191240E-10 -1.318053E-12  1.074883E-12 -1.191118E-10  0.000000E+00  0.000000E+00  0.000000E+00  0.000000E+00  0.000000E+00  0.000000E+00  0.000000E+00  0.000000E+00  3.883923E-01  1.735044E-03 -7.200231E-04  3.883878E-01                                                                                                                                                                                                                                                                                                                                                                                                                                                                                              
  1.050000E+03  1.250000E+02 -4.975000E+03  2.244688E-08 -1.842957E-15  2.035820E-10 -2.244595E-08  1.196132E-10 -9.848519E-18  1.087953E-12 -1.196082E-10  0.000000E+00  0.000000E+00  0.000000E+00  0.000000E+00  0.000000E+00  0.000000E+00  0.000000E+00  0.000000E+00  3.887088E-01 -1.081513E-08 -7.378643E-04  3.887081E-01                                                                                                                                                                                                                                                                                                                                                                                                                                                                                              
  1.225000E+03  1.250000E+02 -4.975000E+03  2.235444E-08  2.466261E-10  2.011336E-10 -2.235217E-08  1.191240E-10  1.318031E-12  1.074887E-12 -1.191118E-10  0.000000E+00  0.000000E+00  0.000000E+00  0.000000E+00  0.000000E+00  0.000000E+00  0.000000E+00  0.000000E+00  3.883923E-01 -1.735050E-03 -7.200196E-04  3.883878E-01                                                                                                                                                                                                                                                                                                                                                                                                                                                                                              
  1.475000E+03  1.250000E+02 -4.975000E+03  2.186706E-08  5.119483E-10  1.913622E-10 -2.186023E-08  1.165424E-10  2.736295E-12  1.022801E-12 -1.165058E-10  0.000000E+00  0.000000E+00  0.000000E+00  0.000000E+00  0.000000E+00  0.000000E+00  0.000000E+00  0.000000E+00  3.871092E-01 -3.723486E-03 -6.457709E-04  3.870907E-01                                                                                                                                                                                                                                                                                                                                                                                                                                                                                              
  1.725000E+03  1.250000E+02 -4.975000E+03  2.107614E-08  5.849097E-10  1.828680E-10 -2.106722E-08  1.123511E-10  3.126781E-12  9.776000E-13 -1.123033E-10  0.000000E+00  0.000000E+00  0.000000E+00  0.000000E+00  0.000000E+00  0.000000E+00  0.000000E+00  0.000000E+00  3.846913E-01 -4.404166E-03 -5.758044E-04  3.846656E-01                                                                                                                                                                                                                                                                                                                                                                                                                                                                                              
  1.975000E+03  1.250000E+02 -4.975000E+03  2.013487E-08  2.795873E-10  1.776185E-10 -2.013215E-08  1.073617E-10  1.494761E-12  9.497209E-13 -1.073471E-10  0.000000E+00  0.000000E+00  0.000000E+00  0.000000E+00  0.000000E+00  0.000000E+00  0.000000E+00  0.000000E+00  3.809264E-01 -2.142347E-03 -5.288630E-04  3.809201E-01                                                                                                                                                                                                                                                                                                                                                                                                                                                                                              
  1.250000E+02  1.250000E+02 -4.725000E+03  2.475451E-08 -2.776012E-10  9.909484E-11 -2.475275E-08  1.300676E-10 -1.457011E-12  5.202314E-13 -1.300584E-10  0.000000E+00  0.000000E+00  0.000000E+00  0.000000E+00  0.000000E+00  0.000000E+00  0.000000E+00  0.000000E+00  4.934872E-01  5.260588E-03 -1.085015E-03  4.934579E-01                                                                                                                                                                                                                                                                                                                                                                                                                                                                                              
  3.750000E+02  1.250000E+02 -4.725000E+03  2.622563E-08 -5.100264E-10  1.065795E-10 -2.622045E-08  1.377261E-10 -2.676468E-12  5.593009E-13 -1.376990E-10  0.000000E+00  0.000000E+00  0.000000E+00  0.000000E+00  0.000000E+00  0.000000E+00  0.000000E+00  0.000000E+00  5.050137E-01  9.419938E-03 -1.221205E-03  5.049244E-01                                                                                                                                                                                                                                                                                                                                                                                                                                                                                              
  6.250000E+02  1.250000E+02 -4.725000E+03  2.714262E-08 -3.920821E-10  1.186170E-10 -2.713953E-08  1.424995E-10 -2.056908E-12  6.222755E-13 -1.424833E-10  0.000000E+00  0.000000E+00  0.000000E+00  0.000000E+00  0.000000E+00  0.000000E+00  0.000000E+00  0.000000E+00  5.084841E-01  6.627557E-03 -1.406229E-03  5.084390E-01                                                                                                                                                                                                                                                                                                                                                                                                                                                                                              
  8.750000E+02  1.250000E+02 -4.725000E+03  2.773193E-08 -2.158276E-10  1.354694E-10 -2.773076E-08  1.455667E-10 -1.132049E-12  7.105563E-13 -1.455606E-10  0.000000E+00  0.000000E+00  0.000000E+00  0.000000E+00  0.000000E+00  0.000000E+00  0.000000E+00  0.000000E+00  5.101817E-01  3.141922E-03 -1.639559E-03  5.101694E-01                                                                                                                                                                                                                                                                                                                                                                                                                                                                                              
  1.050000E+03  1.250000E+02 -4.725000E+03  2.804350E-08  1.053735E-15  1.446844E-10 -2.804313E-08  1.471870E-10  5.526512E-18  7.588659E-13 -1.471850E-10  0.000000E+00  0.000000E+00  0.000000E+00  0.000000E+00  0.000000E+00  0.000000E+00  0.000000E+00  0.000000E+00  5.123375E-01  2.266478E-09 -1.766538E-03  5.123345E-01                                                                                                                                                                                                                                                                                                                                                                                                                                                                                              
  1.225000E+03  1.250000E+02 -4.725000E+03  2.773193E-08  2.158315E-10  1.354672E-10 -2.773076E-08  1.455667E-10  1.132069E-12  7.105449E-13 -1.455606E-10  0.000000E+00  0.000000E+00  0.000000E+00  0.000000E+00  0.000000E+00  0.000000E+00  0.000000E+00  0.000000E+00  5.101817E-01 -3.141920E-03 -1.639560E-03  5.101694E-01                                                                                                                                                                                                                                                                                                                                                                                                                                                                                              
  1.475000E+03  1.250000E+02 -4.725000E+03  2.714262E-08  3.920835E-10  1.186127E-10 -2.713953E-08  1.424995E-10  2.056915E-12  6.222531E-13 -1.424833E-10  0.000000E+00  0.000000E+00  0.000000E+00  0.000000E+00  0.000000E+00  0.000000E+00  0.000000E+00  0.000000E+00  5.084841E-01 -6.627557E-03 -1.406234E-03  5.084390E-01                                                                                                                                                                                                                                                                                                                                                                                                                                                                                              
  1.725000E+03  1.250000E+02 -4.725000E+03  2.622564E-08  5.100240E-10  1.065797E-10 -2.622046E-08  1.377262E-10  2.676456E-12  5.593019E-13 -1.376990E-10  0.000000E+00  0.000000E+00  0.000000E+00  0.000000E+00  0.000000E+00  0.000000E+00  0.000000E+00  0.000000E+00  5.050137E-01 -9.419938E-03 -1.221209E-03  5.049244E-01                                                                                                                                                                                                                                                                                                                                                                                                                                                                                              