Title="TOUGHREACT V3.30-OMP flowvector.tec: Liq & Gas Fluxes (kg/s/m^2), Pore Velocities (m/s), & Heat Fluxes (J/s/m2)"                                                                                                                                                                                                                                                                                                                                                                                                                                                                                                                                                                                                                                                                                                         
Variables= "X(m)"     "Y(m)"      "Z(m)"     "FluxLiq"   "FluxLiq_X"   "FluxLiq_Y"   "FluxLiq_Z"   "PorVelLiq"  "PorVelLiqX"  "PorVelLiqY"  "PorVelLiqZ"     "FluxGas"   "FluxGas_X"   "FluxGas_Y"   "FluxGas_Z"   "PorVelGas"  "PorVelGasX"  "PorVelGasY"  "PorVelGasZ"    "HeatFlux"  "HeatFlux_X"  "HeatFlux_Y"  "HeatFlux_Z"                                                                                                                                                                                                                                                                                                                                                                                                                                                                                                
Zone T= "1.00000000E+10 sec" I=     9 J=    10 K=    23 F=Point
  1.250000E+02  1.250000E+02 -5.425000E+03  1.890744E-09 -3.172534E-10 -4.751053E-11 -1.863332E-09  1.046935E-11 -1.761054E-12 -2.637287E-13 -1.031680E-11  0.000000E+00  0.000000E+00  0.000000E+00  0.000000E+00  0.000000E+00  0.000000E+00  0.000000E+00  0.000000E+00  5.309303E-02 -2.193162E-04 -2.033678E-05  5.309258E-02                                                                                                                                                                                                                                                                                                                                                                                                                                                                                              
  3.750000E+02  1.250000E+02 -5.425000E+03  2.153348E-09 -7.125415E-10 -3.700909E-11 -2.031704E-09  1.192571E-11 -3.955261E-12 -2.054344E-13 -1.124883E-11  0.000000E+00  0.000000E+00  0.000000E+00  0.000000E+00  0.000000E+00  0.000000E+00  0.000000E+00  0.000000E+00  5.325752E-02 -5.088867E-04 -7.073435E-06  5.325509E-02                                                                                                                                                                                                                                                                                                                                                                                                                                                                                              
  6.250000E+02  1.250000E+02 -5.425000E+03  2.286064E-09 -6.646581E-10 -1.049379E-11 -2.187283E-09  1.265969E-11 -3.689447E-12 -5.824984E-14 -1.211001E-11  0.000000E+00  0.000000E+00  0.000000E+00  0.000000E+00  0.000000E+00  0.000000E+00  0.000000E+00  0.000000E+00  5.339744E-02 -4.954016E-04  9.429096E-06  5.339514E-02                                                                                                                                                                                                                                                                                                                                                                                                                                                                                              
  8.750000E+02  1.250000E+02 -5.425000E+03  2.291586E-09 -3.161875E-10  1.522577E-11 -2.269616E-09  1.268801E-11 -1.755118E-12  8.451627E-14 -1.256574E-11  0.000000E+00  0.000000E+00  0.000000E+00  0.000000E+00  0.000000E+00  0.000000E+00  0.000000E+00  0.000000E+00  5.346126E-02 -2.419226E-04  2.200862E-05  5.346070E-02                                                                                                                                                                                                                                                                                                                                                                                                                                                                                              
  1.050000E+03  1.250000E+02 -5.425000E+03  2.279763E-09  8.033842E-15  1.864715E-11 -2.279687E-09  1.262191E-11  4.459479E-17  1.035079E-13 -1.262149E-11  0.000000E+00  0.000000E+00  0.000000E+00  0.000000E+00  0.000000E+00  0.000000E+00  0.000000E+00  0.000000E+00  5.346819E-02  9.102239E-09  2.340539E-05  5.346818E-02                                                                                                                                                                                                                                                                                                                                                                                                                                                                                              
  1.225000E+03  1.250000E+02 -5.425000E+03  2.291592E-09  3.161894E-10  1.520479E-11 -2.269623E-09  1.268804E-11  1.755129E-12  8.439982E-14 -1.256578E-11  0.000000E+00  0.000000E+00  0.000000E+00  0.000000E+00  0.000000E+00  0.000000E+00  0.000000E+00  0.000000E+00  5.346125E-02  2.419205E-04  2.200594E-05  5.346070E-02                                                                                                                                                                                                                                                                                                                                                                                                                                                                                              
  1.475000E+03  1.250000E+02 -5.425000E+03  2.286061E-09  6.646503E-10 -1.048674E-11 -2.187282E-09  1.265967E-11  3.689404E-12 -5.821071E-14 -1.211001E-11  0.000000E+00  0.000000E+00  0.000000E+00  0.000000E+00  0.000000E+00  0.000000E+00  0.000000E+00  0.000000E+00  5.339744E-02  4.953966E-04  9.445037E-06  5.339514E-02                                                                                                                                                                                                                                                                                                                                                                                                                                                                                              
  1.725000E+03  1.250000E+02 -5.425000E+03  2.153349E-09  7.125520E-10 -3.701186E-11 -2.031702E-09  1.192571E-11  3.955320E-12 -2.054497E-13 -1.124882E-11  0.000000E+00  0.000000E+00  0.000000E+00  0.000000E+00  0.000000E+00  0.000000E+00  0.000000E+00  0.000000E+00  5.325752E-02  5.089031E-04 -7.064519E-06  5.325509E-02                                                                                                                                                                                                                                                                                                                                                                                                                                                                                              
  1.975000E+03  1.250000E+02 -5.425000E+03  1.890769E-09  3.172655E-10 -4.752387E-11 -1.863354E-09  1.046949E-11  1.761122E-12 -2.638028E-13 -1.031693E-11  0.000000E+00  0.000000E+00  0.000000E+00  0.000000E+00  0.000000E+00  0.000000E+00  0.000000E+00  0.000000E+00  5.309301E-02  2.193265E-04 -2.035429E-05  5.309256E-02                                                                                                                                                                                                                                                                                                                                                                                                                                                                                              
  1.250000E+02  1.250000E+02 -5.225000E+03  3.623112E-09 -4.091697E-10 -7.223749E-11 -3.599209E-09  1.999294E-11 -2.261477E-12 -3.992601E-13 -1.986061E-11  0.000000E+00  0.000000E+00  0.000000E+00  0.000000E+00  0.000000E+00  0.000000E+00  0.000000E+00  0.000000E+00  1.514987E-01 -4.757723E-05  4.484407E-05  1.514987E-01                                                                                                                                                                                                                                                                                                                                                                                                                                                                                              
  3.750000E+02  1.250000E+02 -5.225000E+03  4.479024E-09 -8.885409E-10 -6.269173E-11 -4.389558E-09  2.470599E-11 -4.910880E-12 -3.464891E-13 -2.421051E-11  0.000000E+00  0.000000E+00  0.000000E+00  0.000000E+00  0.000000E+00  0.000000E+00  0.000000E+00  0.000000E+00  1.533434E-01 -1.838158E-04  7.434515E-05  1.533432E-01                                                                                                                                                                                                                                                                                                                                                                                                                                                                                              
  6.250000E+02  1.250000E+02 -5.225000E+03  5.130873E-09 -7.932646E-10 -2.626336E-11 -5.069113E-09  2.829241E-11 -4.384199E-12 -1.451504E-13 -2.795028E-11  0.000000E+00  0.000000E+00  0.000000E+00  0.000000E+00  0.000000E+00  0.000000E+00  0.000000E+00  0.000000E+00  1.549139E-01 -2.665856E-04  7.079191E-05  1.549136E-01                                                                                                                                                                                                                                                                                                                                                                                                                                                                                              
  8.750000E+02  1.250000E+02 -5.225000E+03  5.428552E-09 -3.686380E-10  1.187715E-11 -5.416008E-09  2.992871E-11 -2.037353E-12  6.564094E-14 -2.985922E-11  0.000000E+00  0.000000E+00  0.000000E+00  0.000000E+00  0.000000E+00  0.000000E+00  0.000000E+00  0.000000E+00  1.556855E-01 -1.539973E-04  5.184727E-05  1.556854E-01                                                                                                                                                                                                                                                                                                                                                                                                                                                                                              
  1.050000E+03  1.250000E+02 -5.225000E+03  5.462611E-09  1.436510E-15  1.737041E-11 -5.462583E-09  3.011562E-11  7.939081E-18  9.600025E-14 -3.011547E-11  0.000000E+00  0.000000E+00  0.000000E+00  0.000000E+00  0.000000E+00  0.000000E+00  0.000000E+00  0.000000E+00  1.557842E-01  4.061963E-09  4.769107E-05  1.557842E-01                                                                                                                                                                                                                                                                                                                                                                                                                                                                                              
  1.225000E+03  1.250000E+02 -5.225000E+03  5.428547E-09  3.686383E-10  1.187727E-11 -5.416003E-09  2.992868E-11  2.037355E-12  6.564161E-14 -2.985919E-11  0.000000E+00  0.000000E+00  0.000000E+00  0.000000E+00  0.000000E+00  0.000000E+00  0.000000E+00  0.000000E+00  1.556855E-01  1.539971E-04  5.184701E-05  1.556854E-01                                                                                                                                                                                                                                                                                                                                                                                                                                                                                              
  1.475000E+03  1.250000E+02 -5.225000E+03  5.130881E-09  7.932635E-10 -2.626114E-11 -5.069120E-09  2.829245E-11  4.384193E-12 -1.451381E-13 -2.795032E-11  0.000000E+00  0.000000E+00  0.000000E+00  0.000000E+00  0.000000E+00  0.000000E+00  0.000000E+00  0.000000E+00  1.549139E-01  2.665814E-04  7.079436E-05  1.549136E-01                                                                                                                                                                                                                                                                                                                                                                                                                                                                                              
  1.725000E+03  1.250000E+02 -5.225000E+03  4.479021E-09  8.885335E-10 -6.269431E-11 -4.389556E-09  2.470597E-11  4.910839E-12 -3.465033E-13 -2.421050E-11  0.000000E+00  0.000000E+00  0.000000E+00  0.000000E+00  0.000000E+00  0.000000E+00  0.000000E+00  0.000000E+00  1.533433E-01  1.838134E-04  7.434507E-05  1.533432E-01                                                                                                                                                                                                                                                                                                                                                                                                                                                                                              
  1.975000E+03  1.250000E+02 -5.225000E+03  3.623119E-09  4.091623E-10 -7.224347E-11 -3.599216E-09  1.999297E-11  2.261436E-12 -3.992931E-13 -1.986065E-11  0.000000E+00  0.000000E+00  0.000000E+00  0.000000E+00  0.000000E+00  0.000000E+00  0.000000E+00  0.000000E+00  1.514987E-01  4.757477E-05  4.483699E-05  1.514987E-01                                                                                                                                                                                                                                                                                                                                                                                                                                                                                              
  1.250000E+02  1.250000E+02 -4.975000E+03  8.460404E-09 -6.648431E-10 -1.313363E-10 -8.433218E-09  4.596398E-11 -3.638720E-12 -7.188699E-13 -4.581409E-11  0.000000E+00  0.000000E+00  0.000000E+00  0.000000E+00  0.000000E+00  0.000000E+00  0.000000E+00  0.000000E+00  3.216020E-01  1.939977E-03  6.410536E-04  3.215955E-01                                                                                                                                                                                                                                                                                                                                                                                                                                                                                              
  3.750000E+02  1.250000E+02 -4.975000E+03  1.070650E-08 -1.349165E-09 -1.294653E-10 -1.062037E-08  5.815493E-11 -7.383210E-12 -7.084531E-13 -5.768000E-11  0.000000E+00  0.000000E+00  0.000000E+00  0.000000E+00  0.000000E+00  0.000000E+00  0.000000E+00  0.000000E+00  3.316939E-01  3.505249E-03  7.853417E-04  3.316744E-01                                                                                                                                                                                                                                                                                                                                                                                                                                                                                              
  6.250000E+02  1.250000E+02 -4.975000E+03  1.234147E-08 -1.101517E-09 -6.485923E-11 -1.229204E-08  6.701737E-11 -6.026947E-12 -3.548504E-13 -6.674487E-11  0.000000E+00  0.000000E+00  0.000000E+00  0.000000E+00  0.000000E+00  0.000000E+00  0.000000E+00  0.000000E+00  3.394219E-01  2.281255E-03  5.655483E-04  3.394138E-01                                                                                                                                                                                                                                                                                                                                                                                                                                                                                              
  8.750000E+02  1.250000E+02 -4.975000E+03  1.313880E-08 -4.947401E-10  1.189265E-11 -1.312947E-08  7.133493E-11 -2.706682E-12  6.506017E-14 -7.128353E-11  0.000000E+00  0.000000E+00  0.000000E+00  0.000000E+00  0.000000E+00  0.000000E+00  0.000000E+00  0.000000E+00  3.433291E-01  8.481932E-04  2.326472E-04  3.433279E-01                                                                                                                                                                                                                                                                                                                                                                                                                                                                                              
  1.050000E+03  1.250000E+02 -4.975000E+03  1.328810E-08  1.711909E-14  2.552006E-11 -1.328808E-08  7.214225E-11  9.365271E-17  1.396092E-13 -7.214212E-11  0.000000E+00  0.000000E+00  0.000000E+00  0.000000E+00  0.000000E+00  0.000000E+00  0.000000E+00  0.000000E+00  3.440161E-01 -8.328326E-11  1.664682E-04  3.440161E-01                                                                                                                                                                                                                                                                                                                                                                                                                                                                                              
  1.225000E+03  1.250000E+02 -4.975000E+03  1.313883E-08  4.947355E-10  1.186704E-11 -1.312951E-08  7.133515E-11  2.706658E-12  6.492006E-14 -7.128375E-11  0.000000E+00  0.000000E+00  0.000000E+00  0.000000E+00  0.000000E+00  0.000000E+00  0.000000E+00  0.000000E+00  3.433290E-01 -8.482050E-04  2.326309E-04  3.433279E-01                                                                                                                                                                                                                                                                                                                                                                                                                                                                                              
  1.475000E+03  1.250000E+02 -4.975000E+03  1.234146E-08  1.101503E-09 -6.485328E-11 -1.229204E-08  6.701732E-11  6.026871E-12 -3.548178E-13 -6.674483E-11  0.000000E+00  0.000000E+00  0.000000E+00  0.000000E+00  0.000000E+00  0.000000E+00  0.000000E+00  0.000000E+00  3.394219E-01 -2.281269E-03  5.655576E-04  3.394137E-01                                                                                                                                                                                                                                                                                                                                                                                                                                                                                              
  1.725000E+03  1.250000E+02 -4.975000E+03  1.070648E-08  1.349185E-09 -1.294780E-10 -1.062034E-08  5.815480E-11  7.383319E-12 -7.085224E-13 -5.767985E-11  0.000000E+00  0.000000E+00  0.000000E+00  0.000000E+00  0.000000E+00  0.000000E+00  0.000000E+00  0.000000E+00  3.316939E-01 -3.505214E-03  7.853339E-04  3.316745E-01                                                                                                                                                                                                                                                                                                                                                                                                                                                                                              
  1.975000E+03  1.250000E+02 -4.975000E+03  8.460391E-09  6.648553E-10 -1.313609E-10 -8.433204E-09  4.596391E-11  3.638787E-12 -7.190044E-13 -4.581401E-11  0.000000E+00  0.000000E+00  0.000000E+00  0.000000E+00  0.000000E+00  0.000000E+00  0.000000E+00  0.000000E+00  3.216020E-01 -1.939940E-03  6.410098E-04  3.215955E-01                                                                                                                                                                                                                                                                                                                                                                                                                                                                                              
  1.250000E+02  1.250000E+02 -4.725000E+03  3.868749E-08 -6.839763E-10 -1.359487E-10 -3.868121E-08  2.045761E-10 -3.664711E-12 -7.287075E-13 -2.045420E-10  0.000000E+00  0.000000E+00  0.000000E+00  0.000000E+00  0.000000E+00  0.000000E+00  0.000000E+00  0.000000E+00  9.055528E-01  1.143490E-02  2.072214E-03  9.054782E-01                                                                                                                                                                                                                                                                                                                                                                                                                                                                                              
  3.750000E+02  1.250000E+02 -4.725000E+03  4.169681E-08 -1.299157E-09 -1.564927E-10 -4.167627E-08  2.204175E-10 -6.957761E-12 -8.379389E-13 -2.203061E-10  0.000000E+00  0.000000E+00  0.000000E+00  0.000000E+00  0.000000E+00  0.000000E+00  0.000000E+00  0.000000E+00  9.246673E-01  2.018156E-02  2.406119E-03  9.244439E-01                                                                                                                                                                                                                                                                                                                                                                                                                                                                                              
  6.250000E+02  1.250000E+02 -4.725000E+03  4.356816E-08 -9.905835E-10 -8.295839E-11 -4.355681E-08  2.302764E-10 -5.301356E-12 -4.438661E-13 -2.302150E-10  0.000000E+00  0.000000E+00  0.000000E+00  0.000000E+00  0.000000E+00  0.000000E+00  0.000000E+00  0.000000E+00  9.310532E-01  1.311597E-02  1.304559E-03  9.309599E-01                                                                                                                                                                                                                                                                                                                                                                                                                                                                                              
  8.750000E+02  1.250000E+02 -4.725000E+03  4.462313E-08 -4.850580E-10  1.970190E-11 -4.462048E-08  2.358220E-10 -2.594786E-12  1.053792E-13 -2.358077E-10  0.000000E+00  0.000000E+00  0.000000E+00  0.000000E+00  0.000000E+00  0.000000E+00  0.000000E+00  0.000000E+00  9.353418E-01  5.454546E-03 -2.468501E-04  9.353259E-01                                                                                                                                                                                                                                                                                                                                                                                                                                                                                              
  1.050000E+03  1.250000E+02 -4.725000E+03  4.516053E-08 -6.009774E-14  4.841168E-11 -4.516051E-08  2.386343E-10 -3.214290E-16  2.589259E-13 -2.386342E-10  0.000000E+00  0.000000E+00  0.000000E+00  0.000000E+00  0.000000E+00  0.000000E+00  0.000000E+00  0.000000E+00  9.390481E-01 -2.951807E-08 -7.147664E-04  9.390479E-01                                                                                                                                                                                                                                                                                                                                                                                                                                                                                              
  1.225000E+03  1.250000E+02 -4.725000E+03  4.462312E-08  4.850427E-10  1.970879E-11 -4.462048E-08  2.358220E-10  2.594705E-12  1.054160E-13 -2.358077E-10  0.000000E+00  0.000000E+00  0.000000E+00  0.000000E+00  0.000000E+00  0.000000E+00  0.000000E+00  0.000000E+00  9.353418E-01 -5.454591E-03 -2.468784E-04  9.353259E-01                                                                                                                                                                                                                                                                                                                                                                                                                                                                                              
  1.475000E+03  1.250000E+02 -4.725000E+03  4.356814E-08  9.906528E-10 -8.300922E-11 -4.355680E-08  2.302764E-10  5.301727E-12 -4.441380E-13 -2.302149E-10  0.000000E+00  0.000000E+00  0.000000E+00  0.000000E+00  0.000000E+00  0.000000E+00  0.000000E+00  0.000000E+00  9.310532E-01 -1.311591E-02  1.304538E-03  9.309599E-01                                                                                                                                                                                                                                                                                                                                                                                                                                                                                              
  1.725000E+03  1.250000E+02 -4.725000E+03  4.169683E-08  1.299165E-09 -1.565670E-10 -4.167629E-08  2.204176E-10  6.957808E-12 -8.383369E-13 -2.203061E-10  0.000000E+00  0.000000E+00  0.000000E+00  0.000000E+00  0.000000E+00  0.000000E+00  0.000000E+00  0.000000E+00  9.246673E-01 -2.018150E-02  2.406052E-03  9.244439E-01                                                                                                                                                                                                                                                                                                                                                                                                                                                                                              