Title="TOUGHREACT V3.30-OMP flowvector.tec: Liq & Gas Fluxes (kg/s/m^2), Pore Velocities (m/s), & Heat Fluxes (J/s/m2)"                                                                                                                                                                                                                                                                                                                                                                                                                                                                                                                                                                                                                                                                                                         
Variables= "X(m)"     "Y(m)"      "Z(m)"     "FluxLiq"   "FluxLiq_X"   "FluxLiq_Y"   "FluxLiq_Z"   "PorVelLiq"  "PorVelLiqX"  "PorVelLiqY"  "PorVelLiqZ"     "FluxGas"   "FluxGas_X"   "FluxGas_Y"   "FluxGas_Z"   "PorVelGas"  "PorVelGasX"  "PorVelGasY"  "PorVelGasZ"    "HeatFlux"  "HeatFlux_X"  "HeatFlux_Y"  "HeatFlux_Z"                                                                                                                                                                                                                                                                                                                                                                                                                                                                                                
Zone T= "1.00000000E+07 sec" I=     9 J=    10 K=    23 F=Point
  1.250000E+02  1.250000E+02 -5.425000E+03  2.657306E-07 -1.948165E-14 -1.492003E-14  2.657306E-07  1.463477E-09 -1.076243E-16 -8.242411E-17  1.463477E-09  0.000000E+00  0.000000E+00  0.000000E+00  0.000000E+00  0.000000E+00  0.000000E+00  0.000000E+00  0.000000E+00  3.183648E-01 -1.789107E-08 -1.378028E-08  3.183648E-01                                                                                                                                                                                                                                                                                                                                                                                                                                                                                              
  3.750000E+02  1.250000E+02 -5.425000E+03  2.657306E-07 -7.398260E-15  3.691330E-15  2.657306E-07  1.463477E-09 -4.087089E-17  2.039235E-17  1.463477E-09  0.000000E+00  0.000000E+00  0.000000E+00  0.000000E+00  0.000000E+00  0.000000E+00  0.000000E+00  0.000000E+00  3.183648E-01 -6.886995E-09  3.425507E-09  3.183648E-01                                                                                                                                                                                                                                                                                                                                                                                                                                                                                              
  6.250000E+02  1.250000E+02 -5.425000E+03  2.657306E-07  9.196744E-15 -8.826118E-15  2.657306E-07  1.463477E-09  5.080642E-17 -4.875893E-17  1.463477E-09  0.000000E+00  0.000000E+00  0.000000E+00  0.000000E+00  0.000000E+00  0.000000E+00  0.000000E+00  0.000000E+00  3.183648E-01  8.299807E-09 -8.001026E-09  3.183648E-01                                                                                                                                                                                                                                                                                                                                                                                                                                                                                              
  8.750000E+02  1.250000E+02 -5.425000E+03  2.657306E-07 -3.349768E-15  1.216973E-14  2.657306E-07  1.463477E-09 -1.850543E-17  6.723038E-17  1.463477E-09  0.000000E+00  0.000000E+00  0.000000E+00  0.000000E+00  0.000000E+00  0.000000E+00  0.000000E+00  0.000000E+00  3.183648E-01 -3.024699E-09  1.126001E-08  3.183648E-01                                                                                                                                                                                                                                                                                                                                                                                                                                                                                              
  1.050000E+03  1.250000E+02 -5.425000E+03  2.657306E-07  1.704711E-15  8.615917E-15  2.657306E-07  1.463477E-09  9.417493E-18  4.759770E-17  1.463477E-09  0.000000E+00  0.000000E+00  0.000000E+00  0.000000E+00  0.000000E+00  0.000000E+00  0.000000E+00  0.000000E+00  3.183648E-01  1.603973E-09  7.602403E-09  3.183648E-01                                                                                                                                                                                                                                                                                                                                                                                                                                                                                              
  1.225000E+03  1.250000E+02 -5.425000E+03  2.657306E-07  6.911424E-15  1.230403E-14  2.657306E-07  1.463477E-09  3.818142E-17  6.797228E-17  1.463477E-09  0.000000E+00  0.000000E+00  0.000000E+00  0.000000E+00  0.000000E+00  0.000000E+00  0.000000E+00  0.000000E+00  3.183648E-01  6.291522E-09  1.120789E-08  3.183648E-01                                                                                                                                                                                                                                                                                                                                                                                                                                                                                              
  1.475000E+03  1.250000E+02 -5.425000E+03  2.657306E-07  2.787212E-15  2.319358E-15  2.657306E-07  1.463477E-09  1.539765E-17  1.281304E-17  1.463477E-09  0.000000E+00  0.000000E+00  0.000000E+00  0.000000E+00  0.000000E+00  0.000000E+00  0.000000E+00  0.000000E+00  3.183648E-01  2.631544E-09  2.077193E-09  3.183648E-01                                                                                                                                                                                                                                                                                                                                                                                                                                                                                              
  1.725000E+03  1.250000E+02 -5.425000E+03  2.657306E-07 -9.829886E-15  5.975329E-15  2.657306E-07  1.463477E-09 -5.430414E-17  3.301006E-17  1.463477E-09  0.000000E+00  0.000000E+00  0.000000E+00  0.000000E+00  0.000000E+00  0.000000E+00  0.000000E+00  0.000000E+00  3.183648E-01 -8.926782E-09  5.461205E-09  3.183648E-01                                                                                                                                                                                                                                                                                                                                                                                                                                                                                              
  1.975000E+03  1.250000E+02 -5.425000E+03  2.657306E-07 -7.873508E-15  3.735818E-16  2.657306E-07  1.463477E-09 -4.349634E-17  2.063812E-18  1.463477E-09  0.000000E+00  0.000000E+00  0.000000E+00  0.000000E+00  0.000000E+00  0.000000E+00  0.000000E+00  0.000000E+00  3.183648E-01 -7.191205E-09  2.703437E-10  3.183648E-01                                                                                                                                                                                                                                                                                                                                                                                                                                                                                              
  1.250000E+02  1.250000E+02 -5.225000E+03  5.998814E-07  1.105685E-15 -1.610710E-15  5.998814E-07  3.291061E-09  6.069990E-18 -8.842473E-18  3.291061E-09  0.000000E+00  0.000000E+00  0.000000E+00  0.000000E+00  0.000000E+00  0.000000E+00  0.000000E+00  0.000000E+00  6.860101E-01  9.247020E-10 -1.347811E-09  6.860101E-01                                                                                                                                                                                                                                                                                                                                                                                                                                                                                              
  3.750000E+02  1.250000E+02 -5.225000E+03  5.998815E-07  7.329747E-15  3.631972E-16  5.998815E-07  3.291061E-09  4.023884E-17  1.993880E-18  3.291061E-09  0.000000E+00  0.000000E+00  0.000000E+00  0.000000E+00  0.000000E+00  0.000000E+00  0.000000E+00  0.000000E+00  6.860102E-01  6.148141E-09  3.041326E-10  6.860102E-01                                                                                                                                                                                                                                                                                                                                                                                                                                                                                              
  6.250000E+02  1.250000E+02 -5.225000E+03  5.998815E-07  1.370614E-14  1.246401E-16  5.998815E-07  3.291061E-09  7.524395E-17  6.842494E-19  3.291061E-09  0.000000E+00  0.000000E+00  0.000000E+00  0.000000E+00  0.000000E+00  0.000000E+00  0.000000E+00  0.000000E+00  6.860102E-01  1.147669E-08  9.532428E-11  6.860102E-01                                                                                                                                                                                                                                                                                                                                                                                                                                                                                              
  8.750000E+02  1.250000E+02 -5.225000E+03  5.998817E-07  1.131144E-14  1.568355E-15  5.998817E-07  3.291062E-09  6.209756E-17  8.609952E-18  3.291062E-09  0.000000E+00  0.000000E+00  0.000000E+00  0.000000E+00  0.000000E+00  0.000000E+00  0.000000E+00  0.000000E+00  6.860103E-01  9.469745E-09  1.343125E-09  6.860103E-01                                                                                                                                                                                                                                                                                                                                                                                                                                                                                              
  1.050000E+03  1.250000E+02 -5.225000E+03  5.998817E-07 -9.988798E-17  1.058718E-15  5.998817E-07  3.291062E-09 -5.483650E-19  5.812150E-18  3.291062E-09  0.000000E+00  0.000000E+00  0.000000E+00  0.000000E+00  0.000000E+00  0.000000E+00  0.000000E+00  0.000000E+00  6.860104E-01 -5.548256E-11  8.979696E-10  6.860104E-01                                                                                                                                                                                                                                                                                                                                                                                                                                                                                              
  1.225000E+03  1.250000E+02 -5.225000E+03  5.998817E-07 -1.069654E-14  7.436521E-16  5.998817E-07  3.291062E-09 -5.872187E-17  4.082501E-18  3.291062E-09  0.000000E+00  0.000000E+00  0.000000E+00  0.000000E+00  0.000000E+00  0.000000E+00  0.000000E+00  0.000000E+00  6.860103E-01 -8.935089E-09  6.091469E-10  6.860103E-01                                                                                                                                                                                                                                                                                                                                                                                                                                                                                              
  1.475000E+03  1.250000E+02 -5.225000E+03  5.998815E-07 -1.256566E-14 -8.187060E-17  5.998815E-07  3.291061E-09 -6.898298E-17 -4.494532E-19  3.291061E-09  0.000000E+00  0.000000E+00  0.000000E+00  0.000000E+00  0.000000E+00  0.000000E+00  0.000000E+00  0.000000E+00  6.860102E-01 -1.054855E-08 -9.053194E-11  6.860102E-01                                                                                                                                                                                                                                                                                                                                                                                                                                                                                              
  1.725000E+03  1.250000E+02 -5.225000E+03  5.998815E-07 -9.292657E-15  1.184672E-16  5.998815E-07  3.291061E-09 -5.101482E-17  6.503613E-19  3.291061E-09  0.000000E+00  0.000000E+00  0.000000E+00  0.000000E+00  0.000000E+00  0.000000E+00  0.000000E+00  0.000000E+00  6.860102E-01 -7.805681E-09  1.028428E-10  6.860102E-01                                                                                                                                                                                                                                                                                                                                                                                                                                                                                              
  1.975000E+03  1.250000E+02 -5.225000E+03  5.998814E-07 -3.494280E-15  3.048719E-16  5.998814E-07  3.291061E-09 -1.918290E-17  1.673685E-18  3.291061E-09  0.000000E+00  0.000000E+00  0.000000E+00  0.000000E+00  0.000000E+00  0.000000E+00  0.000000E+00  0.000000E+00  6.860102E-01 -2.920246E-09  2.607767E-10  6.860102E-01                                                                                                                                                                                                                                                                                                                                                                                                                                                                                              
  1.250000E+02  1.250000E+02 -4.975000E+03  8.581654E-07  3.609458E-14 -1.735246E-15  8.581654E-07  4.672822E-09  1.966830E-16 -9.455529E-18  4.672822E-09  0.000000E+00  0.000000E+00  0.000000E+00  0.000000E+00  0.000000E+00  0.000000E+00  0.000000E+00  0.000000E+00  8.743798E-01  2.889859E-08 -1.408868E-09  8.743798E-01                                                                                                                                                                                                                                                                                                                                                                                                                                                                                              
  3.750000E+02  1.250000E+02 -4.975000E+03  8.581657E-07  1.100658E-13  1.735766E-16  8.581657E-07  4.672823E-09  5.997596E-16  9.458363E-19  4.672823E-09  0.000000E+00  0.000000E+00  0.000000E+00  0.000000E+00  0.000000E+00  0.000000E+00  0.000000E+00  0.000000E+00  8.743800E-01  8.805828E-08  1.233643E-10  8.743800E-01                                                                                                                                                                                                                                                                                                                                                                                                                                                                                              
  6.250000E+02  1.250000E+02 -4.975000E+03  8.581665E-07  1.776127E-13  2.438710E-15  8.581665E-07  4.672827E-09  9.678295E-16  1.328878E-17  4.672827E-09  0.000000E+00  0.000000E+00  0.000000E+00  0.000000E+00  0.000000E+00  0.000000E+00  0.000000E+00  0.000000E+00  8.743806E-01  1.420989E-07  2.014869E-09  8.743806E-01                                                                                                                                                                                                                                                                                                                                                                                                                                                                                              
  8.750000E+02  1.250000E+02 -4.975000E+03  8.581675E-07  1.674081E-13  3.625862E-15  8.581675E-07  4.672833E-09  9.122239E-16  1.975769E-17  4.672833E-09  0.000000E+00  0.000000E+00  0.000000E+00  0.000000E+00  0.000000E+00  0.000000E+00  0.000000E+00  0.000000E+00  8.743814E-01  1.339653E-07  2.978561E-09  8.743814E-01                                                                                                                                                                                                                                                                                                                                                                                                                                                                                              
  1.050000E+03  1.250000E+02 -4.975000E+03  8.581680E-07  3.703077E-15  6.173545E-16  8.581680E-07  4.672836E-09  2.017844E-17  3.364027E-18  4.672836E-09  0.000000E+00  0.000000E+00  0.000000E+00  0.000000E+00  0.000000E+00  0.000000E+00  0.000000E+00  0.000000E+00  8.743819E-01  3.036089E-09  5.343353E-10  8.743819E-01                                                                                                                                                                                                                                                                                                                                                                                                                                                                                              
  1.225000E+03  1.250000E+02 -4.975000E+03  8.581675E-07 -1.646823E-13 -1.647242E-15  8.581675E-07  4.672833E-09 -8.973706E-16 -8.975989E-18  4.672833E-09  0.000000E+00  0.000000E+00  0.000000E+00  0.000000E+00  0.000000E+00  0.000000E+00  0.000000E+00  0.000000E+00  8.743814E-01 -1.317254E-07 -1.328554E-09  8.743814E-01                                                                                                                                                                                                                                                                                                                                                                                                                                                                                              
  1.475000E+03  1.250000E+02 -4.975000E+03  8.581665E-07 -1.815047E-13  2.898486E-17  8.581665E-07  4.672827E-09 -9.890372E-16  1.579414E-19  4.672827E-09  0.000000E+00  0.000000E+00  0.000000E+00  0.000000E+00  0.000000E+00  0.000000E+00  0.000000E+00  0.000000E+00  8.743806E-01 -1.453167E-07  2.272711E-11  8.743806E-01                                                                                                                                                                                                                                                                                                                                                                                                                                                                                              
  1.725000E+03  1.250000E+02 -4.975000E+03  8.581658E-07 -1.140561E-13  8.224315E-16  8.581658E-07  4.672824E-09 -6.215033E-16  4.481512E-18  4.672824E-09  0.000000E+00  0.000000E+00  0.000000E+00  0.000000E+00  0.000000E+00  0.000000E+00  0.000000E+00  0.000000E+00  8.743801E-01 -9.134356E-08  6.914000E-10  8.743801E-01                                                                                                                                                                                                                                                                                                                                                                                                                                                                                              
  1.975000E+03  1.250000E+02 -4.975000E+03  8.581654E-07 -3.717019E-14  1.140813E-15  8.581654E-07  4.672822E-09 -2.025441E-16  6.216405E-18  4.672822E-09  0.000000E+00  0.000000E+00  0.000000E+00  0.000000E+00  0.000000E+00  0.000000E+00  0.000000E+00  0.000000E+00  8.743798E-01 -2.976222E-08  1.006649E-09  8.743798E-01                                                                                                                                                                                                                                                                                                                                                                                                                                                                                              
  1.250000E+02  1.250000E+02 -4.725000E+03  2.584961E-06  3.208016E-13 -1.732251E-14  2.584961E-06  1.397561E-08  1.736459E-15 -9.376453E-17  1.397561E-08  0.000000E+00  0.000000E+00  0.000000E+00  0.000000E+00  0.000000E+00  0.000000E+00  0.000000E+00  0.000000E+00  2.163628E+00  2.433155E-07 -1.408714E-08  2.163628E+00                                                                                                                                                                                                                                                                                                                                                                                                                                                                                              
  3.750000E+02  1.250000E+02 -4.725000E+03  2.584963E-06  1.021779E-12  1.748582E-14  2.584963E-06  1.397562E-08  5.530759E-15  9.464855E-17  1.397562E-08  0.000000E+00  0.000000E+00  0.000000E+00  0.000000E+00  0.000000E+00  0.000000E+00  0.000000E+00  0.000000E+00  2.163629E+00  7.776662E-07  1.399535E-08  2.163629E+00                                                                                                                                                                                                                                                                                                                                                                                                                                                                                              
  6.250000E+02  1.250000E+02 -4.725000E+03  2.584965E-06  1.678465E-12  1.622931E-14  2.584965E-06  1.397563E-08  9.085318E-15  8.784719E-17  1.397563E-08  0.000000E+00  0.000000E+00  0.000000E+00  0.000000E+00  0.000000E+00  0.000000E+00  0.000000E+00  0.000000E+00  2.163630E+00  1.278055E-06  1.282579E-08  2.163630E+00                                                                                                                                                                                                                                                                                                                                                                                                                                                                                              
  8.750000E+02  1.250000E+02 -4.725000E+03  2.584968E-06  1.706372E-12  7.162198E-15  2.584968E-06  1.397565E-08  9.236374E-15  3.876807E-17  1.397565E-08  0.000000E+00  0.000000E+00  0.000000E+00  0.000000E+00  0.000000E+00  0.000000E+00  0.000000E+00  0.000000E+00  2.163627E+00  1.291339E-06  5.852706E-09  2.163627E+00                                                                                                                                                                                                                                                                                                                                                                                                                                                                                              
  1.050000E+03  1.250000E+02 -4.725000E+03  2.584973E-06  2.431509E-16 -1.330503E-14  2.584973E-06  1.397569E-08  1.316145E-18 -7.201843E-17  1.397569E-08  0.000000E+00  0.000000E+00  0.000000E+00  0.000000E+00  0.000000E+00  0.000000E+00  0.000000E+00  0.000000E+00  2.163601E+00 -6.990759E-10 -1.054392E-08  2.163601E+00                                                                                                                                                                                                                                                                                                                                                                                                                                                                                              
  1.225000E+03  1.250000E+02 -4.725000E+03  2.584968E-06 -1.699801E-12 -1.676215E-15  2.584968E-06  1.397565E-08 -9.200807E-15 -9.073140E-18  1.397565E-08  0.000000E+00  0.000000E+00  0.000000E+00  0.000000E+00  0.000000E+00  0.000000E+00  0.000000E+00  0.000000E+00  2.163627E+00 -1.286384E-06 -1.068432E-09  2.163627E+00                                                                                                                                                                                                                                                                                                                                                                                                                                                                                              
  1.475000E+03  1.250000E+02 -4.725000E+03  2.584965E-06 -1.655798E-12  6.208800E-15  2.584965E-06  1.397563E-08 -8.962625E-15  3.360745E-17  1.397563E-08  0.000000E+00  0.000000E+00  0.000000E+00  0.000000E+00  0.000000E+00  0.000000E+00  0.000000E+00  0.000000E+00  2.163630E+00 -1.259428E-06  5.043273E-09  2.163630E+00                                                                                                                                                                                                                                                                                                                                                                                                                                                                                              
  1.725000E+03  1.250000E+02 -4.725000E+03  2.584963E-06 -1.022709E-12  3.620730E-15  2.584963E-06  1.397562E-08 -5.535797E-15  1.959855E-17  1.397562E-08  0.000000E+00  0.000000E+00  0.000000E+00  0.000000E+00  0.000000E+00  0.000000E+00  0.000000E+00  0.000000E+00  2.163629E+00 -7.781598E-07  3.016809E-09  2.163629E+00                                                                                                                                                                                                                                                                                                                                                                                                                                                                                              