Title="TOUGHREACT V3.30-OMP flowvector.tec: Liq & Gas Fluxes (kg/s/m^2), Pore Velocities (m/s), & Heat Fluxes (J/s/m2)"                                                                                                                                                                                                                                                                                                                                                                                                                                                                                                                                                                                                                                                                                                         
Variables= "X(m)"     "Y(m)"      "Z(m)"     "FluxLiq"   "FluxLiq_X"   "FluxLiq_Y"   "FluxLiq_Z"   "PorVelLiq"  "PorVelLiqX"  "PorVelLiqY"  "PorVelLiqZ"     "FluxGas"   "FluxGas_X"   "FluxGas_Y"   "FluxGas_Z"   "PorVelGas"  "PorVelGasX"  "PorVelGasY"  "PorVelGasZ"    "HeatFlux"  "HeatFlux_X"  "HeatFlux_Y"  "HeatFlux_Z"                                                                                                                                                                                                                                                                                                                                                                                                                                                                                                
Zone T= "5.18400000E+05 sec" I=     9 J=    10 K=    23 F=Point
  1.250000E+02  1.250000E+02 -5.425000E+03  3.431789E-07 -2.880509E-16 -1.108639E-16  3.431789E-07  1.889769E-09 -1.591080E-18 -6.123686E-19  1.889769E-09  0.000000E+00  0.000000E+00  0.000000E+00  0.000000E+00  0.000000E+00  0.000000E+00  0.000000E+00  0.000000E+00  3.857826E-01 -2.556575E-10 -9.618108E-11  3.857826E-01                                                                                                                                                                                                                                                                                                                                                                                                                                                                                              
  3.750000E+02  1.250000E+02 -5.425000E+03  3.431789E-07 -2.895331E-16  3.524940E-19  3.431789E-07  1.889769E-09 -1.599268E-18  1.947039E-21  1.889769E-09  0.000000E+00  0.000000E+00  0.000000E+00  0.000000E+00  0.000000E+00  0.000000E+00  0.000000E+00  0.000000E+00  3.857826E-01 -2.569465E-10  3.066687E-13  3.857826E-01                                                                                                                                                                                                                                                                                                                                                                                                                                                                                              
  6.250000E+02  1.250000E+02 -5.425000E+03  3.431789E-07 -3.756049E-16 -1.265363E-19  3.431789E-07  1.889769E-09 -2.074694E-18 -6.989370E-22  1.889769E-09  0.000000E+00  0.000000E+00  0.000000E+00  0.000000E+00  0.000000E+00  0.000000E+00  0.000000E+00  0.000000E+00  3.857826E-01 -3.471738E-10 -1.099842E-13  3.857826E-01                                                                                                                                                                                                                                                                                                                                                                                                                                                                                              
  8.750000E+02  1.250000E+02 -5.425000E+03  3.431789E-07 -1.061525E-15 -5.924610E-17  3.431789E-07  1.889769E-09 -5.863446E-18 -3.272523E-19  1.889769E-09  0.000000E+00  0.000000E+00  0.000000E+00  0.000000E+00  0.000000E+00  0.000000E+00  0.000000E+00  0.000000E+00  3.857826E-01 -9.567252E-10 -5.140692E-11  3.857826E-01                                                                                                                                                                                                                                                                                                                                                                                                                                                                                              
  1.050000E+03  1.250000E+02 -5.425000E+03  3.431789E-07  2.441634E-17 -5.061452E-19  3.431789E-07  1.889769E-09  1.348663E-19 -2.795748E-21  1.889769E-09  0.000000E+00  0.000000E+00  0.000000E+00  0.000000E+00  0.000000E+00  0.000000E+00  0.000000E+00  0.000000E+00  3.857826E-01  2.196629E-11 -4.402209E-13  3.857826E-01                                                                                                                                                                                                                                                                                                                                                                                                                                                                                              
  1.225000E+03  1.250000E+02 -5.425000E+03  3.431789E-07  1.086465E-15 -9.038307E-21  3.431789E-07  1.889769E-09  6.001208E-18 -4.992407E-23  1.889769E-09  0.000000E+00  0.000000E+00  0.000000E+00  0.000000E+00  0.000000E+00  0.000000E+00  0.000000E+00  0.000000E+00  3.857826E-01  9.791651E-10 -7.856012E-15  3.857826E-01                                                                                                                                                                                                                                                                                                                                                                                                                                                                                              
  1.475000E+03  1.250000E+02 -5.425000E+03  3.431789E-07  3.587033E-16 -9.038307E-21  3.431789E-07  1.889769E-09  1.981336E-18 -4.992407E-23  1.889769E-09  0.000000E+00  0.000000E+00  0.000000E+00  0.000000E+00  0.000000E+00  0.000000E+00  0.000000E+00  0.000000E+00  3.857826E-01  3.319627E-10 -7.856012E-15  3.857826E-01                                                                                                                                                                                                                                                                                                                                                                                                                                                                                              
  1.725000E+03  1.250000E+02 -5.425000E+03  3.431789E-07  2.719807E-16  9.038307E-20  3.431789E-07  1.889769E-09  1.502315E-18  4.992407E-22  1.889769E-09  0.000000E+00  0.000000E+00  0.000000E+00  0.000000E+00  0.000000E+00  0.000000E+00  0.000000E+00  0.000000E+00  3.857826E-01  2.411518E-10  7.856012E-14  3.857826E-01                                                                                                                                                                                                                                                                                                                                                                                                                                                                                              
  1.975000E+03  1.250000E+02 -5.425000E+03  3.431789E-07  2.879243E-16 -1.127167E-16  3.431789E-07  1.889769E-09  1.590381E-18 -6.226031E-19  1.889769E-09  0.000000E+00  0.000000E+00  0.000000E+00  0.000000E+00  0.000000E+00  0.000000E+00  0.000000E+00  0.000000E+00  3.857826E-01  2.555476E-10 -9.779270E-11  3.857826E-01                                                                                                                                                                                                                                                                                                                                                                                                                                                                                              
  1.250000E+02  1.250000E+02 -5.225000E+03  6.657172E-07 -9.852828E-17  1.434758E-17  6.657172E-07  3.653824E-09 -5.408973E-19  7.876488E-20  3.653824E-09  0.000000E+00  0.000000E+00  0.000000E+00  0.000000E+00  0.000000E+00  0.000000E+00  0.000000E+00  0.000000E+00  7.436897E-01 -8.608587E-11  1.249899E-11  7.436897E-01                                                                                                                                                                                                                                                                                                                                                                                                                                                                                              
  3.750000E+02  1.250000E+02 -5.225000E+03  6.657172E-07 -9.533601E-17  5.203754E-17  6.657172E-07  3.653824E-09 -5.233725E-19  2.856740E-19  3.653824E-09  0.000000E+00  0.000000E+00  0.000000E+00  0.000000E+00  0.000000E+00  0.000000E+00  0.000000E+00  0.000000E+00  7.436897E-01 -8.342775E-11  4.551089E-11  7.436897E-01                                                                                                                                                                                                                                                                                                                                                                                                                                                                                              
  6.250000E+02  1.250000E+02 -5.225000E+03  6.657172E-07 -2.373921E-17  2.857170E-18  6.657172E-07  3.653824E-09 -1.303227E-19  1.568520E-20  3.653824E-09  0.000000E+00  0.000000E+00  0.000000E+00  0.000000E+00  0.000000E+00  0.000000E+00  0.000000E+00  0.000000E+00  7.436897E-01 -2.195064E-11  2.403330E-12  7.436897E-01                                                                                                                                                                                                                                                                                                                                                                                                                                                                                              
  8.750000E+02  1.250000E+02 -5.225000E+03  6.657172E-07  1.138736E-16  4.937437E-17  6.657172E-07  3.653824E-09  6.251396E-19  2.710538E-19  3.653824E-09  0.000000E+00  0.000000E+00  0.000000E+00  0.000000E+00  0.000000E+00  0.000000E+00  0.000000E+00  0.000000E+00  7.436898E-01  9.731460E-11  4.280978E-11  7.436898E-01                                                                                                                                                                                                                                                                                                                                                                                                                                                                                              
  1.050000E+03  1.250000E+02 -5.225000E+03  6.657172E-07 -3.313209E-18 -4.982411E-18  6.657172E-07  3.653824E-09 -1.818875E-20 -2.735228E-20  3.653824E-09  0.000000E+00  0.000000E+00  0.000000E+00  0.000000E+00  0.000000E+00  0.000000E+00  0.000000E+00  0.000000E+00  7.436898E-01 -2.772830E-12 -4.361571E-12  7.436898E-01                                                                                                                                                                                                                                                                                                                                                                                                                                                                                              
  1.225000E+03  1.250000E+02 -5.225000E+03  6.657172E-07 -1.100615E-16  3.439187E-19  6.657172E-07  3.653824E-09 -6.042121E-19  1.888033E-21  3.653824E-09  0.000000E+00  0.000000E+00  0.000000E+00  0.000000E+00  0.000000E+00  0.000000E+00  0.000000E+00  0.000000E+00  7.436898E-01 -9.410299E-11  2.979952E-13  7.436898E-01                                                                                                                                                                                                                                                                                                                                                                                                                                                                                              
  1.475000E+03  1.250000E+02 -5.225000E+03  6.657172E-07  5.580301E-17  1.657864E-18  6.657172E-07  3.653824E-09  3.063455E-19  9.101289E-21  3.653824E-09  0.000000E+00  0.000000E+00  0.000000E+00  0.000000E+00  0.000000E+00  0.000000E+00  0.000000E+00  0.000000E+00  7.436897E-01  4.992485E-11  1.376833E-12  7.436897E-01                                                                                                                                                                                                                                                                                                                                                                                                                                                                                              
  1.725000E+03  1.250000E+02 -5.225000E+03  6.657172E-07  1.058829E-16 -2.063512E-18  6.657172E-07  3.653824E-09  5.812722E-19 -1.132820E-20  3.653824E-09  0.000000E+00  0.000000E+00  0.000000E+00  0.000000E+00  0.000000E+00  0.000000E+00  0.000000E+00  0.000000E+00  7.436897E-01  9.274628E-11 -1.726864E-12  7.436897E-01                                                                                                                                                                                                                                                                                                                                                                                                                                                                                              
  1.975000E+03  1.250000E+02 -5.225000E+03  6.657172E-07  8.413661E-17 -3.615555E-19  6.657172E-07  3.653824E-09  4.618904E-19 -1.984855E-21  3.653824E-09  0.000000E+00  0.000000E+00  0.000000E+00  0.000000E+00  0.000000E+00  0.000000E+00  0.000000E+00  0.000000E+00  7.436897E-01  7.341463E-11 -3.031180E-13  7.436897E-01                                                                                                                                                                                                                                                                                                                                                                                                                                                                                              
  1.250000E+02  1.250000E+02 -4.975000E+03  6.321928E-07  1.721916E-15 -3.040862E-17  6.321928E-07  3.445260E-09  9.382656E-18 -1.656954E-19  3.445260E-09  0.000000E+00  0.000000E+00  0.000000E+00  0.000000E+00  0.000000E+00  0.000000E+00  0.000000E+00  0.000000E+00  6.931029E-01  1.376261E-09 -2.538822E-11  6.931029E-01                                                                                                                                                                                                                                                                                                                                                                                                                                                                                              
  3.750000E+02  1.250000E+02 -4.975000E+03  6.321930E-07  5.282794E-15  5.333873E-17  6.321930E-07  3.445261E-09  2.878575E-17  2.906408E-19  3.445261E-09  0.000000E+00  0.000000E+00  0.000000E+00  0.000000E+00  0.000000E+00  0.000000E+00  0.000000E+00  0.000000E+00  6.931031E-01  4.225971E-09  4.387103E-11  6.931031E-01                                                                                                                                                                                                                                                                                                                                                                                                                                                                                              
  6.250000E+02  1.250000E+02 -4.975000E+03  6.321936E-07  8.875991E-15  5.106192E-17  6.321936E-07  3.445264E-09  4.836495E-17  2.782345E-19  3.445264E-09  0.000000E+00  0.000000E+00  0.000000E+00  0.000000E+00  0.000000E+00  0.000000E+00  0.000000E+00  0.000000E+00  6.931035E-01  7.102825E-09  4.273509E-11  6.931035E-01                                                                                                                                                                                                                                                                                                                                                                                                                                                                                              
  8.750000E+02  1.250000E+02 -4.975000E+03  6.321944E-07  1.209364E-14 -1.184452E-17  6.321944E-07  3.445268E-09  6.589783E-17 -6.454037E-20  3.445268E-09  0.000000E+00  0.000000E+00  0.000000E+00  0.000000E+00  0.000000E+00  0.000000E+00  0.000000E+00  0.000000E+00  6.931042E-01  9.681290E-09 -9.544230E-12  6.931042E-01                                                                                                                                                                                                                                                                                                                                                                                                                                                                                              
  1.050000E+03  1.250000E+02 -4.975000E+03  6.321951E-07  4.850858E-17 -2.518134E-17  6.321951E-07  3.445272E-09  2.643215E-19 -1.372122E-19  3.445272E-09  0.000000E+00  0.000000E+00  0.000000E+00  0.000000E+00  0.000000E+00  0.000000E+00  0.000000E+00  0.000000E+00  6.931047E-01  4.081743E-11 -2.108277E-11  6.931047E-01                                                                                                                                                                                                                                                                                                                                                                                                                                                                                              
  1.225000E+03  1.250000E+02 -4.975000E+03  6.321944E-07 -1.210055E-14  2.293864E-18  6.321944E-07  3.445268E-09 -6.593544E-17  1.249918E-20  3.445268E-09  0.000000E+00  0.000000E+00  0.000000E+00  0.000000E+00  0.000000E+00  0.000000E+00  0.000000E+00  0.000000E+00  6.931042E-01 -9.687296E-09  1.989736E-12  6.931042E-01                                                                                                                                                                                                                                                                                                                                                                                                                                                                                              
  1.475000E+03  1.250000E+02 -4.975000E+03  6.321936E-07 -8.894111E-15 -5.523181E-17  6.321936E-07  3.445264E-09 -4.846369E-17 -3.009561E-19  3.445264E-09  0.000000E+00  0.000000E+00  0.000000E+00  0.000000E+00  0.000000E+00  0.000000E+00  0.000000E+00  0.000000E+00  6.931035E-01 -7.118232E-09 -4.549642E-11  6.931035E-01                                                                                                                                                                                                                                                                                                                                                                                                                                                                                              
  1.725000E+03  1.250000E+02 -4.975000E+03  6.321930E-07 -5.237147E-15  3.537155E-17  6.321930E-07  3.445261E-09 -2.853702E-17  1.927383E-19  3.445261E-09  0.000000E+00  0.000000E+00  0.000000E+00  0.000000E+00  0.000000E+00  0.000000E+00  0.000000E+00  0.000000E+00  6.931031E-01 -4.187624E-09  2.920397E-11  6.931031E-01                                                                                                                                                                                                                                                                                                                                                                                                                                                                                              
  1.975000E+03  1.250000E+02 -4.975000E+03  6.321928E-07 -1.713559E-15 -2.838763E-17  6.321928E-07  3.445260E-09 -9.337120E-18 -1.546832E-19  3.445260E-09  0.000000E+00  0.000000E+00  0.000000E+00  0.000000E+00  0.000000E+00  0.000000E+00  0.000000E+00  0.000000E+00  6.931029E-01 -1.369331E-09 -2.338910E-11  6.931029E-01                                                                                                                                                                                                                                                                                                                                                                                                                                                                                              
  1.250000E+02  1.250000E+02 -4.725000E+03  3.034888E-06  2.574470E-13  1.571613E-15  3.034888E-06  1.639229E-08  1.392773E-15  8.502332E-18  1.639229E-08  0.000000E+00  0.000000E+00  0.000000E+00  0.000000E+00  0.000000E+00  0.000000E+00  0.000000E+00  0.000000E+00  2.498436E+00  1.961828E-07  1.273856E-09  2.498436E+00                                                                                                                                                                                                                                                                                                                                                                                                                                                                                              
  3.750000E+02  1.250000E+02 -4.725000E+03  3.034890E-06  7.679734E-13  3.260113E-16  3.034890E-06  1.639230E-08  4.154689E-15  1.763701E-18  1.639230E-08  0.000000E+00  0.000000E+00  0.000000E+00  0.000000E+00  0.000000E+00  0.000000E+00  0.000000E+00  0.000000E+00  2.498437E+00  5.850720E-07  2.698197E-10  2.498437E+00                                                                                                                                                                                                                                                                                                                                                                                                                                                                                              
  6.250000E+02  1.250000E+02 -4.725000E+03  3.034893E-06  1.277877E-12 -2.440873E-16  3.034893E-06  1.639232E-08  6.913236E-15 -1.320497E-18  1.639232E-08  0.000000E+00  0.000000E+00  0.000000E+00  0.000000E+00  0.000000E+00  0.000000E+00  0.000000E+00  0.000000E+00  2.498440E+00  9.735360E-07 -1.386584E-10  2.498440E+00                                                                                                                                                                                                                                                                                                                                                                                                                                                                                              
  8.750000E+02  1.250000E+02 -4.725000E+03  3.034899E-06  1.742742E-12  1.392906E-16  3.034899E-06  1.639235E-08  9.428131E-15  7.535536E-19  1.639235E-08  0.000000E+00  0.000000E+00  0.000000E+00  0.000000E+00  0.000000E+00  0.000000E+00  0.000000E+00  0.000000E+00  2.498444E+00  1.327672E-06  1.084499E-10  2.498444E+00                                                                                                                                                                                                                                                                                                                                                                                                                                                                                              
  1.050000E+03  1.250000E+02 -4.725000E+03  3.034904E-06  1.282352E-16 -9.453399E-16  3.034904E-06  1.639238E-08  6.937449E-19 -5.114231E-18  1.639238E-08  0.000000E+00  0.000000E+00  0.000000E+00  0.000000E+00  0.000000E+00  0.000000E+00  0.000000E+00  0.000000E+00  2.498445E+00  7.358487E-11 -7.388592E-10  2.498445E+00                                                                                                                                                                                                                                                                                                                                                                                                                                                                                              
  1.225000E+03  1.250000E+02 -4.725000E+03  3.034899E-06 -1.740435E-12 -1.141578E-15  3.034899E-06  1.639235E-08 -9.415649E-15 -6.175867E-18  1.639235E-08  0.000000E+00  0.000000E+00  0.000000E+00  0.000000E+00  0.000000E+00  0.000000E+00  0.000000E+00  0.000000E+00  2.498444E+00 -1.325871E-06 -9.006664E-10  2.498444E+00                                                                                                                                                                                                                                                                                                                                                                                                                                                                                              
  1.475000E+03  1.250000E+02 -4.725000E+03  3.034893E-06 -1.279140E-12 -1.714684E-15  3.034893E-06  1.639232E-08 -6.920072E-15 -9.276339E-18  1.639232E-08  0.000000E+00  0.000000E+00  0.000000E+00  0.000000E+00  0.000000E+00  0.000000E+00  0.000000E+00  0.000000E+00  2.498440E+00 -9.744912E-07 -1.332869E-09  2.498440E+00                                                                                                                                                                                                                                                                                                                                                                                                                                                                                              
  1.725000E+03  1.250000E+02 -4.725000E+03  3.034890E-06 -7.687025E-13  2.535347E-15  3.034890E-06  1.639230E-08 -4.158634E-15  1.371607E-17  1.639230E-08  0.000000E+00  0.000000E+00  0.000000E+00  0.000000E+00  0.000000E+00  0.000000E+00  0.000000E+00  0.000000E+00  2.498437E+00 -5.856086E-07  1.982608E-09  2.498437E+00                                                                                                                                                                                                                                                                                                                                                                                                                                                                                              