Title="TOUGHREACT V3.30-OMP flowvector.tec: Liq & Gas Fluxes (kg/s/m^2), Pore Velocities (m/s), & Heat Fluxes (J/s/m2)"                                                                                                                                                                                                                                                                                                                                                                                                                                                                                                                                                                                                                                                                                                         
Variables= "X(m)"     "Y(m)"      "Z(m)"     "FluxLiq"   "FluxLiq_X"   "FluxLiq_Y"   "FluxLiq_Z"   "PorVelLiq"  "PorVelLiqX"  "PorVelLiqY"  "PorVelLiqZ"     "FluxGas"   "FluxGas_X"   "FluxGas_Y"   "FluxGas_Z"   "PorVelGas"  "PorVelGasX"  "PorVelGasY"  "PorVelGasZ"    "HeatFlux"  "HeatFlux_X"  "HeatFlux_Y"  "HeatFlux_Z"                                                                                                                                                                                                                                                                                                                                                                                                                                                                                                
Zone T= "1.00000000E+06 sec" I=     9 J=    10 K=    23 F=Point
  1.250000E+02  1.250000E+02 -5.425000E+03  3.380913E-07  2.996114E-16  1.485385E-15  3.380913E-07  1.861773E-09  1.654955E-18  8.204781E-18  1.861773E-09  0.000000E+00  0.000000E+00  0.000000E+00  0.000000E+00  0.000000E+00  0.000000E+00  0.000000E+00  0.000000E+00  3.813546E-01  2.639652E-10  1.337305E-09  3.813546E-01                                                                                                                                                                                                                                                                                                                                                                                                                                                                                              
  3.750000E+02  1.250000E+02 -5.425000E+03  3.380913E-07  6.347072E-16  9.642535E-16  3.380913E-07  1.861773E-09  3.505915E-18  5.326221E-18  1.861773E-09  0.000000E+00  0.000000E+00  0.000000E+00  0.000000E+00  0.000000E+00  0.000000E+00  0.000000E+00  0.000000E+00  3.813546E-01  5.669612E-10  8.725134E-10  3.813546E-01                                                                                                                                                                                                                                                                                                                                                                                                                                                                                              
  6.250000E+02  1.250000E+02 -5.425000E+03  3.380913E-07  8.701555E-16 -6.275037E-16  3.380913E-07  1.861773E-09  4.806454E-18 -3.466125E-18  1.861773E-09  0.000000E+00  0.000000E+00  0.000000E+00  0.000000E+00  0.000000E+00  0.000000E+00  0.000000E+00  0.000000E+00  3.813546E-01  7.791673E-10 -5.608165E-10  3.813546E-01                                                                                                                                                                                                                                                                                                                                                                                                                                                                                              
  8.750000E+02  1.250000E+02 -5.425000E+03  3.380913E-07 -9.053908E-16 -7.536787E-16  3.380913E-07  1.861773E-09 -5.001082E-18 -4.163074E-18  1.861773E-09  0.000000E+00  0.000000E+00  0.000000E+00  0.000000E+00  0.000000E+00  0.000000E+00  0.000000E+00  0.000000E+00  3.813546E-01 -8.087263E-10 -6.651947E-10  3.813546E-01                                                                                                                                                                                                                                                                                                                                                                                                                                                                                              
  1.050000E+03  1.250000E+02 -5.425000E+03  3.380913E-07 -8.484145E-16  4.111533E-16  3.380913E-07  1.861773E-09 -4.686364E-18  2.271076E-18  1.861773E-09  0.000000E+00  0.000000E+00  0.000000E+00  0.000000E+00  0.000000E+00  0.000000E+00  0.000000E+00  0.000000E+00  3.813546E-01 -7.582719E-10  3.667561E-10  3.813546E-01                                                                                                                                                                                                                                                                                                                                                                                                                                                                                              
  1.225000E+03  1.250000E+02 -5.425000E+03  3.380913E-07  1.205557E-15 -1.663051E-18  3.380913E-07  1.861773E-09  6.659104E-18 -9.186152E-21  1.861773E-09  0.000000E+00  0.000000E+00  0.000000E+00  0.000000E+00  0.000000E+00  0.000000E+00  0.000000E+00  0.000000E+00  3.813546E-01  1.092748E-09 -1.457440E-12  3.813546E-01                                                                                                                                                                                                                                                                                                                                                                                                                                                                                              
  1.475000E+03  1.250000E+02 -5.425000E+03  3.380913E-07  7.392987E-16  1.412509E-16  3.380913E-07  1.861773E-09  4.083644E-18  7.802238E-19  1.861773E-09  0.000000E+00  0.000000E+00  0.000000E+00  0.000000E+00  0.000000E+00  0.000000E+00  0.000000E+00  0.000000E+00  3.813546E-01  6.714484E-10  1.211987E-10  3.813546E-01                                                                                                                                                                                                                                                                                                                                                                                                                                                                                              
  1.725000E+03  1.250000E+02 -5.425000E+03  3.380913E-07  7.411425E-18 -9.875724E-16  3.380913E-07  1.861773E-09  4.093829E-20 -5.455027E-18  1.861773E-09  0.000000E+00  0.000000E+00  0.000000E+00  0.000000E+00  0.000000E+00  0.000000E+00  0.000000E+00  0.000000E+00  3.813546E-01  1.918886E-12 -8.819856E-10  3.813546E-01                                                                                                                                                                                                                                                                                                                                                                                                                                                                                              
  1.975000E+03  1.250000E+02 -5.425000E+03  3.380913E-07 -1.183659E-16  4.974964E-16  3.380913E-07  1.861773E-09 -6.538144E-19  2.748007E-18  1.861773E-09  0.000000E+00  0.000000E+00  0.000000E+00  0.000000E+00  0.000000E+00  0.000000E+00  0.000000E+00  0.000000E+00  3.813546E-01 -1.034068E-10  4.414904E-10  3.813546E-01                                                                                                                                                                                                                                                                                                                                                                                                                                                                                              
  1.250000E+02  1.250000E+02 -5.225000E+03  6.607323E-07 -1.128141E-16  3.039712E-17  6.607323E-07  3.626390E-09 -6.193231E-19  1.668730E-19  3.626390E-09  0.000000E+00  0.000000E+00  0.000000E+00  0.000000E+00  0.000000E+00  0.000000E+00  0.000000E+00  0.000000E+00  7.393479E-01 -9.903306E-11  2.608806E-11  7.393479E-01                                                                                                                                                                                                                                                                                                                                                                                                                                                                                              
  3.750000E+02  1.250000E+02 -5.225000E+03  6.607323E-07  1.256626E-17  1.116148E-16  6.607323E-07  3.626390E-09  6.898580E-20  6.127392E-19  3.626390E-09  0.000000E+00  0.000000E+00  0.000000E+00  0.000000E+00  0.000000E+00  0.000000E+00  0.000000E+00  0.000000E+00  7.393479E-01  8.417216E-12  9.722412E-11  7.393479E-01                                                                                                                                                                                                                                                                                                                                                                                                                                                                                              
  6.250000E+02  1.250000E+02 -5.225000E+03  6.607323E-07  1.261652E-16  9.541538E-18  6.607323E-07  3.626390E-09  6.926175E-19  5.238080E-20  3.626390E-09  0.000000E+00  0.000000E+00  0.000000E+00  0.000000E+00  0.000000E+00  0.000000E+00  0.000000E+00  0.000000E+00  7.393479E-01  1.051376E-10  8.216218E-12  7.393479E-01                                                                                                                                                                                                                                                                                                                                                                                                                                                                                              
  8.750000E+02  1.250000E+02 -5.225000E+03  6.607323E-07  2.147451E-16  8.245229E-17  6.607323E-07  3.626390E-09  1.178900E-18  4.526437E-19  3.626390E-09  0.000000E+00  0.000000E+00  0.000000E+00  0.000000E+00  0.000000E+00  0.000000E+00  0.000000E+00  0.000000E+00  7.393479E-01  1.813561E-10  7.178484E-11  7.393479E-01                                                                                                                                                                                                                                                                                                                                                                                                                                                                                              
  1.050000E+03  1.250000E+02 -5.225000E+03  6.607323E-07 -4.832498E-17 -2.198434E-17  6.607323E-07  3.626390E-09 -2.652928E-19 -1.206888E-19  3.626390E-09  0.000000E+00  0.000000E+00  0.000000E+00  0.000000E+00  0.000000E+00  0.000000E+00  0.000000E+00  0.000000E+00  7.393479E-01 -4.236863E-11 -1.917826E-11  7.393479E-01                                                                                                                                                                                                                                                                                                                                                                                                                                                                                              
  1.225000E+03  1.250000E+02 -5.225000E+03  6.607323E-07 -1.651502E-16  5.737268E-17  6.607323E-07  3.626390E-09 -9.066360E-19  3.149626E-19  3.626390E-09  0.000000E+00  0.000000E+00  0.000000E+00  0.000000E+00  0.000000E+00  0.000000E+00  0.000000E+00  0.000000E+00  7.393479E-01 -1.384758E-10  5.000761E-11  7.393479E-01                                                                                                                                                                                                                                                                                                                                                                                                                                                                                              
  1.475000E+03  1.250000E+02 -5.225000E+03  6.607323E-07  7.187018E-18 -1.660686E-16  6.607323E-07  3.626390E-09  3.945504E-20 -9.116777E-19  3.626390E-09  0.000000E+00  0.000000E+00  0.000000E+00  0.000000E+00  0.000000E+00  0.000000E+00  0.000000E+00  0.000000E+00  7.393479E-01  1.113590E-11 -1.450131E-10  7.393479E-01                                                                                                                                                                                                                                                                                                                                                                                                                                                                                              
  1.725000E+03  1.250000E+02 -5.225000E+03  6.607323E-07 -3.990338E-17  9.424253E-17  6.607323E-07  3.626390E-09 -2.190602E-19  5.173693E-19  3.626390E-09  0.000000E+00  0.000000E+00  0.000000E+00  0.000000E+00  0.000000E+00  0.000000E+00  0.000000E+00  0.000000E+00  7.393479E-01 -3.169288E-11  8.240216E-11  7.393479E-01                                                                                                                                                                                                                                                                                                                                                                                                                                                                                              
  1.975000E+03  1.250000E+02 -5.225000E+03  6.607323E-07  5.004457E-17 -1.615536E-17  6.607323E-07  3.626390E-09  2.747329E-19 -8.868912E-20  3.626390E-09  0.000000E+00  0.000000E+00  0.000000E+00  0.000000E+00  0.000000E+00  0.000000E+00  0.000000E+00  0.000000E+00  7.393478E-01  4.473278E-11 -1.464839E-11  7.393478E-01                                                                                                                                                                                                                                                                                                                                                                                                                                                                                              
  1.250000E+02  1.250000E+02 -4.975000E+03  6.475383E-07  3.418676E-15 -1.927187E-17  6.475383E-07  3.528585E-09  1.862824E-17 -1.050117E-19  3.528585E-09  0.000000E+00  0.000000E+00  0.000000E+00  0.000000E+00  0.000000E+00  0.000000E+00  0.000000E+00  0.000000E+00  7.053874E-01  2.733761E-09 -1.650364E-11  7.053874E-01                                                                                                                                                                                                                                                                                                                                                                                                                                                                                              
  3.750000E+02  1.250000E+02 -4.975000E+03  6.475386E-07  1.041447E-14  1.035820E-16  6.475386E-07  3.528586E-09  5.674809E-17  5.644146E-19  3.528586E-09  0.000000E+00  0.000000E+00  0.000000E+00  0.000000E+00  0.000000E+00  0.000000E+00  0.000000E+00  0.000000E+00  7.053877E-01  8.332397E-09  8.480650E-11  7.053877E-01                                                                                                                                                                                                                                                                                                                                                                                                                                                                                              
  6.250000E+02  1.250000E+02 -4.975000E+03  6.475392E-07  1.737830E-14  8.010616E-17  6.475392E-07  3.528589E-09  9.469374E-17  4.364955E-19  3.528589E-09  0.000000E+00  0.000000E+00  0.000000E+00  0.000000E+00  0.000000E+00  0.000000E+00  0.000000E+00  0.000000E+00  7.053881E-01  1.390542E-08  6.689156E-11  7.053881E-01                                                                                                                                                                                                                                                                                                                                                                                                                                                                                              
  8.750000E+02  1.250000E+02 -4.975000E+03  6.475400E-07  2.303510E-14 -7.584247E-17  6.475400E-07  3.528594E-09  1.255174E-16 -4.132628E-19  3.528594E-09  0.000000E+00  0.000000E+00  0.000000E+00  0.000000E+00  0.000000E+00  0.000000E+00  0.000000E+00  0.000000E+00  7.053887E-01  1.843846E-08 -6.417542E-11  7.053887E-01                                                                                                                                                                                                                                                                                                                                                                                                                                                                                              
  1.050000E+03  1.250000E+02 -4.975000E+03  6.475407E-07  4.536564E-17 -1.043751E-17  6.475407E-07  3.528598E-09  2.471957E-19 -5.687359E-20  3.528598E-09  0.000000E+00  0.000000E+00  0.000000E+00  0.000000E+00  0.000000E+00  0.000000E+00  0.000000E+00  0.000000E+00  7.053893E-01  3.848288E-11 -8.537860E-12  7.053893E-01                                                                                                                                                                                                                                                                                                                                                                                                                                                                                              
  1.225000E+03  1.250000E+02 -4.975000E+03  6.475400E-07 -2.303484E-14  6.196844E-17  6.475400E-07  3.528594E-09 -1.255160E-16  3.376637E-19  3.528594E-09  0.000000E+00  0.000000E+00  0.000000E+00  0.000000E+00  0.000000E+00  0.000000E+00  0.000000E+00  0.000000E+00  7.053887E-01 -1.843934E-08  5.132694E-11  7.053887E-01                                                                                                                                                                                                                                                                                                                                                                                                                                                                                              
  1.475000E+03  1.250000E+02 -4.975000E+03  6.475392E-07 -1.738241E-14 -6.719572E-17  6.475392E-07  3.528589E-09 -9.471613E-17 -3.661470E-19  3.528589E-09  0.000000E+00  0.000000E+00  0.000000E+00  0.000000E+00  0.000000E+00  0.000000E+00  0.000000E+00  0.000000E+00  7.053881E-01 -1.390956E-08 -5.479196E-11  7.053881E-01                                                                                                                                                                                                                                                                                                                                                                                                                                                                                              
  1.725000E+03  1.250000E+02 -4.975000E+03  6.475386E-07 -1.033816E-14  6.000714E-17  6.475386E-07  3.528586E-09 -5.633227E-17  3.269767E-19  3.528586E-09  0.000000E+00  0.000000E+00  0.000000E+00  0.000000E+00  0.000000E+00  0.000000E+00  0.000000E+00  0.000000E+00  7.053877E-01 -8.268244E-09  4.888358E-11  7.053877E-01                                                                                                                                                                                                                                                                                                                                                                                                                                                                                              
  1.975000E+03  1.250000E+02 -4.975000E+03  6.475384E-07 -3.383364E-15 -8.789166E-17  6.475384E-07  3.528585E-09 -1.843582E-17 -4.789184E-19  3.528585E-09  0.000000E+00  0.000000E+00  0.000000E+00  0.000000E+00  0.000000E+00  0.000000E+00  0.000000E+00  0.000000E+00  7.053874E-01 -2.704835E-09 -7.229032E-11  7.053874E-01                                                                                                                                                                                                                                                                                                                                                                                                                                                                                              
  1.250000E+02  1.250000E+02 -4.725000E+03  3.002538E-06  2.617576E-13  1.486841E-15  3.002538E-06  1.621876E-08  1.416161E-15  8.044108E-18  1.621876E-08  0.000000E+00  0.000000E+00  0.000000E+00  0.000000E+00  0.000000E+00  0.000000E+00  0.000000E+00  0.000000E+00  2.474353E+00  1.994166E-07  1.225615E-09  2.474353E+00                                                                                                                                                                                                                                                                                                                                                                                                                                                                                              
  3.750000E+02  1.250000E+02 -4.725000E+03  3.002540E-06  7.913490E-13  5.508211E-15  3.002540E-06  1.621877E-08  4.281356E-15  2.980052E-17  1.621877E-08  0.000000E+00  0.000000E+00  0.000000E+00  0.000000E+00  0.000000E+00  0.000000E+00  0.000000E+00  0.000000E+00  2.474354E+00  6.029011E-07  4.326017E-09  2.474354E+00                                                                                                                                                                                                                                                                                                                                                                                                                                                                                              
  6.250000E+02  1.250000E+02 -4.725000E+03  3.002543E-06  1.317529E-12  5.009751E-16  3.002543E-06  1.621879E-08  7.128093E-15  2.710375E-18  1.621879E-08  0.000000E+00  0.000000E+00  0.000000E+00  0.000000E+00  0.000000E+00  0.000000E+00  0.000000E+00  0.000000E+00  2.474357E+00  1.003757E-06  4.848596E-10  2.474357E+00                                                                                                                                                                                                                                                                                                                                                                                                                                                                                              
  8.750000E+02  1.250000E+02 -4.725000E+03  3.002548E-06  1.752950E-12  4.811366E-15  3.002548E-06  1.621881E-08  9.483809E-15  2.603045E-17  1.621881E-08  0.000000E+00  0.000000E+00  0.000000E+00  0.000000E+00  0.000000E+00  0.000000E+00  0.000000E+00  0.000000E+00  2.474360E+00  1.335469E-06  3.816841E-09  2.474360E+00                                                                                                                                                                                                                                                                                                                                                                                                                                                                                              
  1.050000E+03  1.250000E+02 -4.725000E+03  3.002553E-06 -1.196770E-15 -1.269373E-15  3.002553E-06  1.621884E-08 -6.474766E-18 -6.867559E-18  1.621884E-08  0.000000E+00  0.000000E+00  0.000000E+00  0.000000E+00  0.000000E+00  0.000000E+00  0.000000E+00  0.000000E+00  2.474360E+00 -9.339366E-10 -1.032941E-09  2.474360E+00                                                                                                                                                                                                                                                                                                                                                                                                                                                                                              
  1.225000E+03  1.250000E+02 -4.725000E+03  3.002548E-06 -1.749664E-12  2.781273E-15  3.002548E-06  1.621881E-08 -9.466030E-15  1.504724E-17  1.621881E-08  0.000000E+00  0.000000E+00  0.000000E+00  0.000000E+00  0.000000E+00  0.000000E+00  0.000000E+00  0.000000E+00  2.474360E+00 -1.332882E-06  2.153271E-09  2.474360E+00                                                                                                                                                                                                                                                                                                                                                                                                                                                                                              
  1.475000E+03  1.250000E+02 -4.725000E+03  3.002543E-06 -1.314696E-12 -3.038397E-15  3.002543E-06  1.621879E-08 -7.112767E-15 -1.643833E-17  1.621879E-08  0.000000E+00  0.000000E+00  0.000000E+00  0.000000E+00  0.000000E+00  0.000000E+00  0.000000E+00  0.000000E+00  2.474357E+00 -1.001498E-06 -2.351661E-09  2.474357E+00                                                                                                                                                                                                                                                                                                                                                                                                                                                                                              
  1.725000E+03  1.250000E+02 -4.725000E+03  3.002540E-06 -7.920243E-13  4.112155E-15  3.002540E-06  1.621877E-08 -4.285009E-15  2.224758E-17  1.621877E-08  0.000000E+00  0.000000E+00  0.000000E+00  0.000000E+00  0.000000E+00  0.000000E+00  0.000000E+00  0.000000E+00  2.474354E+00 -6.033591E-07  3.175210E-09  2.474354E+00                                                                                                                                                                                                                                                                                                                                                                                                                                                                                              