Title="TOUGHREACT V3.30-OMP flowvector.tec: Liq & Gas Fluxes (kg/s/m^2), Pore Velocities (m/s), & Heat Fluxes (J/s/m2)"                                                                                                                                                                                                                                                                                                                                                                                                                                                                                                                                                                                                                                                                                                         
Variables= "X(m)"     "Y(m)"      "Z(m)"     "FluxLiq"   "FluxLiq_X"   "FluxLiq_Y"   "FluxLiq_Z"   "PorVelLiq"  "PorVelLiqX"  "PorVelLiqY"  "PorVelLiqZ"     "FluxGas"   "FluxGas_X"   "FluxGas_Y"   "FluxGas_Z"   "PorVelGas"  "PorVelGasX"  "PorVelGasY"  "PorVelGasZ"    "HeatFlux"  "HeatFlux_X"  "HeatFlux_Y"  "HeatFlux_Z"                                                                                                                                                                                                                                                                                                                                                                                                                                                                                                
Zone T= "1.00000000E+09 sec" I=     9 J=    10 K=    23 F=Point
  1.250000E+02  1.250000E+02 -5.425000E+03  1.906736E-08 -6.872682E-10 -4.574358E-10  1.904948E-08  1.056294E-10 -3.818457E-12 -2.541512E-12  1.055297E-10  0.000000E+00  0.000000E+00  0.000000E+00  0.000000E+00  0.000000E+00  0.000000E+00  0.000000E+00  0.000000E+00  9.873731E-02 -5.955730E-04 -3.964051E-04  9.873472E-02                                                                                                                                                                                                                                                                                                                                                                                                                                                                                              
  3.750000E+02  1.250000E+02 -5.425000E+03  1.878614E-08 -1.561836E-09 -4.104451E-10  1.871660E-08  1.040729E-10 -8.677535E-12 -2.280427E-12  1.036854E-10  0.000000E+00  0.000000E+00  0.000000E+00  0.000000E+00  0.000000E+00  0.000000E+00  0.000000E+00  0.000000E+00  9.845724E-02 -1.353450E-03 -3.556747E-04  9.844729E-02                                                                                                                                                                                                                                                                                                                                                                                                                                                                                              
  6.250000E+02  1.250000E+02 -5.425000E+03  1.843992E-08 -1.468141E-09 -3.228855E-10  1.837854E-08  1.021543E-10 -8.156950E-12 -1.793943E-12  1.018123E-10  0.000000E+00  0.000000E+00  0.000000E+00  0.000000E+00  0.000000E+00  0.000000E+00  0.000000E+00  0.000000E+00  9.816457E-02 -1.272252E-03 -2.797957E-04  9.815593E-02                                                                                                                                                                                                                                                                                                                                                                                                                                                                                              
  8.750000E+02  1.250000E+02 -5.425000E+03  1.822045E-08 -6.959792E-10 -2.485014E-10  1.820546E-08  1.009369E-10 -3.866837E-12 -1.380664E-12  1.008533E-10  0.000000E+00  0.000000E+00  0.000000E+00  0.000000E+00  0.000000E+00  0.000000E+00  0.000000E+00  0.000000E+00  9.800914E-02 -6.031167E-04 -2.153388E-04  9.800705E-02                                                                                                                                                                                                                                                                                                                                                                                                                                                                                              
  1.050000E+03  1.250000E+02 -5.425000E+03  1.818854E-08 -1.190440E-16 -2.389920E-10  1.818697E-08  1.007596E-10 -6.614250E-19 -1.327830E-12  1.007509E-10  0.000000E+00  0.000000E+00  0.000000E+00  0.000000E+00  0.000000E+00  0.000000E+00  0.000000E+00  0.000000E+00  9.799135E-02  8.538686E-10 -2.071010E-04  9.799113E-02                                                                                                                                                                                                                                                                                                                                                                                                                                                                                              
  1.225000E+03  1.250000E+02 -5.425000E+03  1.822045E-08  6.959791E-10 -2.485013E-10  1.820546E-08  1.009369E-10  3.866837E-12 -1.380664E-12  1.008533E-10  0.000000E+00  0.000000E+00  0.000000E+00  0.000000E+00  0.000000E+00  0.000000E+00  0.000000E+00  0.000000E+00  9.800914E-02  6.031168E-04 -2.153395E-04  9.800705E-02                                                                                                                                                                                                                                                                                                                                                                                                                                                                                              
  1.475000E+03  1.250000E+02 -5.425000E+03  1.843992E-08  1.468140E-09 -3.228856E-10  1.837854E-08  1.021543E-10  8.156950E-12 -1.793943E-12  1.018123E-10  0.000000E+00  0.000000E+00  0.000000E+00  0.000000E+00  0.000000E+00  0.000000E+00  0.000000E+00  0.000000E+00  9.816457E-02  1.272252E-03 -2.797953E-04  9.815593E-02                                                                                                                                                                                                                                                                                                                                                                                                                                                                                              
  1.725000E+03  1.250000E+02 -5.425000E+03  1.878614E-08  1.561836E-09 -4.104450E-10  1.871660E-08  1.040729E-10  8.677535E-12 -2.280426E-12  1.036854E-10  0.000000E+00  0.000000E+00  0.000000E+00  0.000000E+00  0.000000E+00  0.000000E+00  0.000000E+00  0.000000E+00  9.845724E-02  1.353451E-03 -3.556758E-04  9.844729E-02                                                                                                                                                                                                                                                                                                                                                                                                                                                                                              
  1.975000E+03  1.250000E+02 -5.425000E+03  1.906736E-08  6.872682E-10 -4.574357E-10  1.904948E-08  1.056294E-10  3.818458E-12 -2.541511E-12  1.055297E-10  0.000000E+00  0.000000E+00  0.000000E+00  0.000000E+00  0.000000E+00  0.000000E+00  0.000000E+00  0.000000E+00  9.873731E-02  5.955722E-04 -3.964052E-04  9.873471E-02                                                                                                                                                                                                                                                                                                                                                                                                                                                                                              
  1.250000E+02  1.250000E+02 -5.225000E+03  7.667539E-08 -9.298937E-10 -5.765363E-10  7.666758E-08  4.224019E-10 -5.132730E-12 -3.182308E-12  4.223587E-10  0.000000E+00  0.000000E+00  0.000000E+00  0.000000E+00  0.000000E+00  0.000000E+00  0.000000E+00  0.000000E+00  2.341411E-01 -7.780985E-04 -4.824267E-04  2.341393E-01                                                                                                                                                                                                                                                                                                                                                                                                                                                                                              
  3.750000E+02  1.250000E+02 -5.225000E+03  7.521894E-08 -2.046562E-09 -5.238307E-10  7.518927E-08  4.143777E-10 -1.129637E-11 -2.891380E-12  4.142136E-10  0.000000E+00  0.000000E+00  0.000000E+00  0.000000E+00  0.000000E+00  0.000000E+00  0.000000E+00  0.000000E+00  2.329802E-01 -1.712209E-03 -4.377852E-04  2.329735E-01                                                                                                                                                                                                                                                                                                                                                                                                                                                                                              
  6.250000E+02  1.250000E+02 -5.225000E+03  7.380349E-08 -1.830657E-09 -3.960285E-10  7.377972E-08  4.065772E-10 -1.010462E-11 -2.185945E-12  4.064457E-10  0.000000E+00  0.000000E+00  0.000000E+00  0.000000E+00  0.000000E+00  0.000000E+00  0.000000E+00  0.000000E+00  2.319078E-01 -1.531297E-03 -3.307411E-04  2.319025E-01                                                                                                                                                                                                                                                                                                                                                                                                                                                                                              
  8.750000E+02  1.250000E+02 -5.225000E+03  7.312525E-08 -8.344896E-10 -2.812826E-10  7.311995E-08  4.028380E-10 -4.606100E-12 -1.552583E-12  4.028086E-10  0.000000E+00  0.000000E+00  0.000000E+00  0.000000E+00  0.000000E+00  0.000000E+00  0.000000E+00  0.000000E+00  2.314230E-01 -6.979988E-04 -2.349830E-04  2.314218E-01                                                                                                                                                                                                                                                                                                                                                                                                                                                                                              
  1.050000E+03  1.250000E+02 -5.225000E+03  7.305837E-08  2.041745E-17 -2.658805E-10  7.305789E-08  4.024691E-10  1.126961E-19 -1.467569E-12  4.024664E-10  0.000000E+00  0.000000E+00  0.000000E+00  0.000000E+00  0.000000E+00  0.000000E+00  0.000000E+00  0.000000E+00  2.313744E-01  7.085787E-11 -2.222106E-04  2.313743E-01                                                                                                                                                                                                                                                                                                                                                                                                                                                                                              
  1.225000E+03  1.250000E+02 -5.225000E+03  7.312525E-08  8.344896E-10 -2.812826E-10  7.311995E-08  4.028380E-10  4.606100E-12 -1.552583E-12  4.028086E-10  0.000000E+00  0.000000E+00  0.000000E+00  0.000000E+00  0.000000E+00  0.000000E+00  0.000000E+00  0.000000E+00  2.314230E-01  6.979989E-04 -2.349831E-04  2.314218E-01                                                                                                                                                                                                                                                                                                                                                                                                                                                                                              
  1.475000E+03  1.250000E+02 -5.225000E+03  7.380349E-08  1.830657E-09 -3.960284E-10  7.377972E-08  4.065772E-10  1.010462E-11 -2.185945E-12  4.064457E-10  0.000000E+00  0.000000E+00  0.000000E+00  0.000000E+00  0.000000E+00  0.000000E+00  0.000000E+00  0.000000E+00  2.319078E-01  1.531297E-03 -3.307410E-04  2.319025E-01                                                                                                                                                                                                                                                                                                                                                                                                                                                                                              
  1.725000E+03  1.250000E+02 -5.225000E+03  7.521894E-08  2.046562E-09 -5.238307E-10  7.518927E-08  4.143777E-10  1.129638E-11 -2.891380E-12  4.142136E-10  0.000000E+00  0.000000E+00  0.000000E+00  0.000000E+00  0.000000E+00  0.000000E+00  0.000000E+00  0.000000E+00  2.329802E-01  1.712209E-03 -4.377852E-04  2.329735E-01                                                                                                                                                                                                                                                                                                                                                                                                                                                                                              
  1.975000E+03  1.250000E+02 -5.225000E+03  7.667539E-08  9.298937E-10 -5.765363E-10  7.666758E-08  4.224019E-10  5.132730E-12 -3.182308E-12  4.223587E-10  0.000000E+00  0.000000E+00  0.000000E+00  0.000000E+00  0.000000E+00  0.000000E+00  0.000000E+00  0.000000E+00  2.341411E-01  7.780984E-04 -4.824267E-04  2.341393E-01                                                                                                                                                                                                                                                                                                                                                                                                                                                                                              
  1.250000E+02  1.250000E+02 -4.975000E+03  1.471313E-07 -1.989922E-09 -1.079067E-09  1.471139E-07  8.049644E-10 -1.089286E-11 -5.906856E-12  8.048691E-10  0.000000E+00  0.000000E+00  0.000000E+00  0.000000E+00  0.000000E+00  0.000000E+00  0.000000E+00  0.000000E+00  2.971469E-01 -1.508829E-03 -8.150752E-04  2.971419E-01                                                                                                                                                                                                                                                                                                                                                                                                                                                                                              
  3.750000E+02  1.250000E+02 -4.975000E+03  1.424833E-07 -4.084094E-09 -1.046036E-09  1.424209E-07  7.793939E-10 -2.235620E-11 -5.725941E-12  7.790521E-10  0.000000E+00  0.000000E+00  0.000000E+00  0.000000E+00  0.000000E+00  0.000000E+00  0.000000E+00  0.000000E+00  3.005782E-01 -3.063600E-03 -7.365833E-04  3.005616E-01                                                                                                                                                                                                                                                                                                                                                                                                                                                                                              
  6.250000E+02  1.250000E+02 -4.975000E+03  1.384049E-07 -3.242070E-09 -7.317071E-10  1.383650E-07  7.569100E-10 -1.774676E-11 -4.005256E-12  7.566913E-10  0.000000E+00  0.000000E+00  0.000000E+00  0.000000E+00  0.000000E+00  0.000000E+00  0.000000E+00  0.000000E+00  3.059692E-01 -2.395572E-03 -4.904442E-04  3.059594E-01                                                                                                                                                                                                                                                                                                                                                                                                                                                                                              
  8.750000E+02  1.250000E+02 -4.975000E+03  1.367759E-07 -1.323231E-09 -4.163773E-10  1.367689E-07  7.479032E-10 -7.243163E-12 -2.279168E-12  7.478647E-10  0.000000E+00  0.000000E+00  0.000000E+00  0.000000E+00  0.000000E+00  0.000000E+00  0.000000E+00  0.000000E+00  3.092892E-01 -9.738438E-04 -2.794372E-04  3.092875E-01                                                                                                                                                                                                                                                                                                                                                                                                                                                                                              
  1.050000E+03  1.250000E+02 -4.975000E+03  1.367210E-07  6.677330E-17 -3.655265E-10  1.367205E-07  7.475989E-10  3.655019E-19 -2.000821E-12  7.475963E-10  0.000000E+00  0.000000E+00  0.000000E+00  0.000000E+00  0.000000E+00  0.000000E+00  0.000000E+00  0.000000E+00  3.093397E-01  1.512582E-10 -2.546500E-04  3.093395E-01                                                                                                                                                                                                                                                                                                                                                                                                                                                                                              
  1.225000E+03  1.250000E+02 -4.975000E+03  1.367759E-07  1.323231E-09 -4.163773E-10  1.367689E-07  7.479032E-10  7.243163E-12 -2.279168E-12  7.478647E-10  0.000000E+00  0.000000E+00  0.000000E+00  0.000000E+00  0.000000E+00  0.000000E+00  0.000000E+00  0.000000E+00  3.092892E-01  9.738441E-04 -2.794373E-04  3.092875E-01                                                                                                                                                                                                                                                                                                                                                                                                                                                                                              
  1.475000E+03  1.250000E+02 -4.975000E+03  1.384049E-07  3.242070E-09 -7.317071E-10  1.383650E-07  7.569100E-10  1.774675E-11 -4.005255E-12  7.566913E-10  0.000000E+00  0.000000E+00  0.000000E+00  0.000000E+00  0.000000E+00  0.000000E+00  0.000000E+00  0.000000E+00  3.059692E-01  2.395571E-03 -4.904443E-04  3.059594E-01                                                                                                                                                                                                                                                                                                                                                                                                                                                                                              
  1.725000E+03  1.250000E+02 -4.975000E+03  1.424833E-07  4.084094E-09 -1.046036E-09  1.424209E-07  7.793939E-10  2.235620E-11 -5.725942E-12  7.790521E-10  0.000000E+00  0.000000E+00  0.000000E+00  0.000000E+00  0.000000E+00  0.000000E+00  0.000000E+00  0.000000E+00  3.005782E-01  3.063600E-03 -7.365834E-04  3.005616E-01                                                                                                                                                                                                                                                                                                                                                                                                                                                                                              
  1.975000E+03  1.250000E+02 -4.975000E+03  1.471313E-07  1.989922E-09 -1.079067E-09  1.471139E-07  8.049644E-10  1.089286E-11 -5.906856E-12  8.048691E-10  0.000000E+00  0.000000E+00  0.000000E+00  0.000000E+00  0.000000E+00  0.000000E+00  0.000000E+00  0.000000E+00  2.971469E-01  1.508829E-03 -8.150751E-04  2.971419E-01                                                                                                                                                                                                                                                                                                                                                                                                                                                                                              
  1.250000E+02  1.250000E+02 -4.725000E+03  1.898551E-07 -4.433478E-09 -2.093583E-09  1.897918E-07  1.028313E-09 -2.406326E-11 -1.136507E-11  1.027969E-09  0.000000E+00  0.000000E+00  0.000000E+00  0.000000E+00  0.000000E+00  0.000000E+00  0.000000E+00  0.000000E+00  5.109159E-01  3.862763E-03  2.160540E-03  5.108967E-01                                                                                                                                                                                                                                                                                                                                                                                                                                                                                              
  3.750000E+02  1.250000E+02 -4.725000E+03  1.577831E-07 -8.236509E-09 -2.251470E-09  1.575519E-07  8.511649E-10 -4.468899E-11 -1.221181E-11  8.499032E-10  0.000000E+00  0.000000E+00  0.000000E+00  0.000000E+00  0.000000E+00  0.000000E+00  0.000000E+00  0.000000E+00  8.266715E-01  9.684051E-03  5.352709E-03  8.265975E-01                                                                                                                                                                                                                                                                                                                                                                                                                                                                                              
  6.250000E+02  1.250000E+02 -4.725000E+03  1.340993E-07 -5.398788E-09 -1.414021E-09  1.339831E-07  7.223132E-10 -2.927481E-11 -7.663593E-12  7.216790E-10  0.000000E+00  0.000000E+00  0.000000E+00  0.000000E+00  0.000000E+00  0.000000E+00  0.000000E+00  0.000000E+00  1.078752E+00  9.248163E-03  4.912195E-03  1.078701E+00                                                                                                                                                                                                                                                                                                                                                                                                                                                                                              
  8.750000E+02  1.250000E+02 -4.725000E+03  1.275961E-07 -1.752750E-09 -5.730160E-10  1.275828E-07  6.870817E-10 -9.499786E-12 -3.104679E-12  6.870091E-10  0.000000E+00  0.000000E+00  0.000000E+00  0.000000E+00  0.000000E+00  0.000000E+00  0.000000E+00  0.000000E+00  1.154763E+00  3.441286E-03  2.351069E-03  1.154756E+00                                                                                                                                                                                                                                                                                                                                                                                                                                                                                              
  1.050000E+03  1.250000E+02 -4.725000E+03  1.281731E-07  2.329197E-16 -3.828814E-10  1.281726E-07  6.901454E-10  1.262205E-18 -2.074600E-12  6.901423E-10  0.000000E+00  0.000000E+00  0.000000E+00  0.000000E+00  0.000000E+00  0.000000E+00  0.000000E+00  0.000000E+00  1.150595E+00 -1.879461E-09  1.284340E-03  1.150595E+00                                                                                                                                                                                                                                                                                                                                                                                                                                                                                              
  1.225000E+03  1.250000E+02 -4.725000E+03  1.275961E-07  1.752750E-09 -5.730161E-10  1.275828E-07  6.870818E-10  9.499786E-12 -3.104679E-12  6.870091E-10  0.000000E+00  0.000000E+00  0.000000E+00  0.000000E+00  0.000000E+00  0.000000E+00  0.000000E+00  0.000000E+00  1.154763E+00 -3.441286E-03  2.351070E-03  1.154756E+00                                                                                                                                                                                                                                                                                                                                                                                                                                                                                              
  1.475000E+03  1.250000E+02 -4.725000E+03  1.340993E-07  5.398788E-09 -1.414021E-09  1.339831E-07  7.223132E-10  2.927481E-11 -7.663593E-12  7.216790E-10  0.000000E+00  0.000000E+00  0.000000E+00  0.000000E+00  0.000000E+00  0.000000E+00  0.000000E+00  0.000000E+00  1.078752E+00 -9.248162E-03  4.912194E-03  1.078701E+00                                                                                                                                                                                                                                                                                                                                                                                                                                                                                              
  1.725000E+03  1.250000E+02 -4.725000E+03  1.577831E-07  8.236509E-09 -2.251470E-09  1.575519E-07  8.511649E-10  4.468899E-11 -1.221181E-11  8.499032E-10  0.000000E+00  0.000000E+00  0.000000E+00  0.000000E+00  0.000000E+00  0.000000E+00  0.000000E+00  0.000000E+00  8.266715E-01 -9.684050E-03  5.352709E-03  8.265975E-01                                                                                                                                                                                                                                                                                                                                                                                                                                                                                              