Title="TOUGHREACT V3.30-OMP flowdata.tec: P,T,SAT & Other Variables"                                                                                                                                                                                                                                                                                                                                                                                                                                                                                                                                                                                                                                                                                                                                                            
Variables= "X(m)"     "Y(m)"      "Z(m)"       "P(Pa)"        "T(C)"      "SatGas"      "SatLiq"          "X1"          "X2"    "Pcap(Pa)"  "DGas_kg/m3"  "DLiq_kg/m3"    "Porosity"  "Perm_X(m2)"  "Perm_Y(m2)"  "Perm_Z(m2)"    "Krel_Gas"    "Krel_Liq"                                                                                                                                                                                                                                                                                                                                                                                                                                                                                                                                                                      
Zone T= "1.00000000E+11 sec" I=     9 J=    10 K=    23 F=Point
  1.250000E+02  1.250000E+02 -5.425000E+03  5.620753E+07  1.171891E+03  1.000000E+00  0.000000E+00  1.000000E+00  0.000000E+00  0.000000E+00  8.509983E+01  7.557282E+02  2.040594E-01  1.100000E-17  1.100000E-17  1.100000E-17  1.000000E+00  0.000000E+00                                                                                                                                                                                                                                                                                                                                                                                                                                                                                                                                                                    
  3.750000E+02  1.250000E+02 -5.425000E+03  5.632254E+07  1.102592E+03  1.000000E+00  0.000000E+00  1.000000E+00  0.000000E+00  0.000000E+00  9.014778E+01  7.557282E+02  2.037108E-01  1.100000E-17  1.100000E-17  1.100000E-17  1.000000E+00  0.000000E+00                                                                                                                                                                                                                                                                                                                                                                                                                                                                                                                                                                    
  6.250000E+02  1.250000E+02 -5.425000E+03  5.668696E+07  9.312554E+02  1.000000E+00  0.000000E+00  1.000000E+00  0.000000E+00  0.000000E+00  1.068358E+02  7.557282E+02  2.029031E-01  1.100000E-17  1.100000E-17  1.100000E-17  1.000000E+00  0.000000E+00                                                                                                                                                                                                                                                                                                                                                                                                                                                                                                                                                                    
  8.750000E+02  1.250000E+02 -5.425000E+03  5.738710E+07  5.746491E+02  1.000000E+00  0.000000E+00  1.000000E+00  0.000000E+00  0.000000E+00  2.139558E+02  7.557282E+02  2.011948E-01  1.100000E-17  1.100000E-17  1.100000E-17  1.000000E+00  0.000000E+00                                                                                                                                                                                                                                                                                                                                                                                                                                                                                                                                                                    
  1.050000E+03  1.250000E+02 -5.425000E+03  5.842094E+07  4.911576E+01  0.000000E+00  1.000000E+00  1.000000E+00  0.000000E+00  0.000000E+00  7.965119E-02  1.012382E+03  2.980551E-01  1.100000E-10  1.100000E-10  1.100000E-10  0.000000E+00  1.000000E+00                                                                                                                                                                                                                                                                                                                                                                                                                                                                                                                                                                    
  1.225000E+03  1.250000E+02 -5.425000E+03  5.738710E+07  5.746490E+02  1.000000E+00  0.000000E+00  1.000000E+00  0.000000E+00  0.000000E+00  2.139559E+02  7.557282E+02  2.011948E-01  1.100000E-17  1.100000E-17  1.100000E-17  1.000000E+00  0.000000E+00                                                                                                                                                                                                                                                                                                                                                                                                                                                                                                                                                                    
  1.475000E+03  1.250000E+02 -5.425000E+03  5.668696E+07  9.312553E+02  1.000000E+00  0.000000E+00  1.000000E+00  0.000000E+00  0.000000E+00  1.068358E+02  7.557282E+02  2.029031E-01  1.100000E-17  1.100000E-17  1.100000E-17  1.000000E+00  0.000000E+00                                                                                                                                                                                                                                                                                                                                                                                                                                                                                                                                                                    
  1.725000E+03  1.250000E+02 -5.425000E+03  5.632256E+07  1.102592E+03  1.000000E+00  0.000000E+00  1.000000E+00  0.000000E+00  0.000000E+00  9.014782E+01  7.557282E+02  2.037108E-01  1.100000E-17  1.100000E-17  1.100000E-17  1.000000E+00  0.000000E+00                                                                                                                                                                                                                                                                                                                                                                                                                                                                                                                                                                    
  1.975000E+03  1.250000E+02 -5.425000E+03  5.620757E+07  1.171891E+03  1.000000E+00  0.000000E+00  1.000000E+00  0.000000E+00  0.000000E+00  8.509990E+01  7.557282E+02  2.040594E-01  1.100000E-17  1.100000E-17  1.100000E-17  1.000000E+00  0.000000E+00                                                                                                                                                                                                                                                                                                                                                                                                                                                                                                                                                                    
  1.250000E+02  1.250000E+02 -5.225000E+03  5.593124E+07  7.773953E+02  1.000000E+00  0.000000E+00  1.000000E+00  0.000000E+00  0.000000E+00  1.285856E+02  7.557282E+02  2.028168E-01  1.100000E-17  1.100000E-17  1.100000E-17  1.000000E+00  0.000000E+00                                                                                                                                                                                                                                                                                                                                                                                                                                                                                                                                                                    
  3.750000E+02  1.250000E+02 -5.225000E+03  5.594015E+07  7.182265E+02  1.000000E+00  0.000000E+00  1.000000E+00  0.000000E+00  0.000000E+00  1.421724E+02  7.557282E+02  2.024631E-01  1.100000E-17  1.100000E-17  1.100000E-17  1.000000E+00  0.000000E+00                                                                                                                                                                                                                                                                                                                                                                                                                                                                                                                                                                    
  6.250000E+02  1.250000E+02 -5.225000E+03  5.604519E+07  5.761859E+02  1.000000E+00  0.000000E+00  1.000000E+00  0.000000E+00  0.000000E+00  2.059986E+02  7.557282E+02  2.016701E-01  1.100000E-17  1.100000E-17  1.100000E-17  1.000000E+00  0.000000E+00                                                                                                                                                                                                                                                                                                                                                                                                                                                                                                                                                                    
  8.750000E+02  1.250000E+02 -5.225000E+03  5.631317E+07  3.217072E+02  0.000000E+00  1.000000E+00  1.000000E+00  0.000000E+00  0.000000E+00  6.652740E+01  7.515914E+02  2.003083E-01  1.100000E-17  1.100000E-17  1.100000E-17  0.000000E+00  1.000000E+00                                                                                                                                                                                                                                                                                                                                                                                                                                                                                                                                                                    
  1.050000E+03  1.250000E+02 -5.225000E+03  5.643051E+07  4.100325E+01  0.000000E+00  1.000000E+00  1.000000E+00  0.000000E+00  0.000000E+00  5.379447E-02  1.015126E+03  2.980540E-01  1.100000E-10  1.100000E-10  1.100000E-10  0.000000E+00  1.000000E+00                                                                                                                                                                                                                                                                                                                                                                                                                                                                                                                                                                    
  1.225000E+03  1.250000E+02 -5.225000E+03  5.631318E+07  3.217071E+02  0.000000E+00  1.000000E+00  1.000000E+00  0.000000E+00  0.000000E+00  6.652736E+01  7.515915E+02  2.003083E-01  1.100000E-17  1.100000E-17  1.100000E-17  0.000000E+00  1.000000E+00                                                                                                                                                                                                                                                                                                                                                                                                                                                                                                                                                                    
  1.475000E+03  1.250000E+02 -5.225000E+03  5.604520E+07  5.761859E+02  1.000000E+00  0.000000E+00  1.000000E+00  0.000000E+00  0.000000E+00  2.059987E+02  7.557282E+02  2.016702E-01  1.100000E-17  1.100000E-17  1.100000E-17  1.000000E+00  0.000000E+00                                                                                                                                                                                                                                                                                                                                                                                                                                                                                                                                                                    
  1.725000E+03  1.250000E+02 -5.225000E+03  5.594019E+07  7.182264E+02  1.000000E+00  0.000000E+00  1.000000E+00  0.000000E+00  0.000000E+00  1.421726E+02  7.557282E+02  2.024631E-01  1.100000E-17  1.100000E-17  1.100000E-17  1.000000E+00  0.000000E+00                                                                                                                                                                                                                                                                                                                                                                                                                                                                                                                                                                    
  1.975000E+03  1.250000E+02 -5.225000E+03  5.593130E+07  7.773951E+02  1.000000E+00  0.000000E+00  1.000000E+00  0.000000E+00  0.000000E+00  1.285858E+02  7.557282E+02  2.028169E-01  1.100000E-17  1.100000E-17  1.100000E-17  1.000000E+00  0.000000E+00                                                                                                                                                                                                                                                                                                                                                                                                                                                                                                                                                                    
  1.250000E+02  1.250000E+02 -4.975000E+03  5.452440E+07  4.480626E+02  4.033592E-01  5.966408E-01  1.000000E+00  0.000000E+00  0.000000E+00  5.550455E+02  6.816306E+02  2.015796E-01  1.100000E-17  1.100000E-17  1.100000E-17  1.000000E+00  1.000000E+00                                                                                                                                                                                                                                                                                                                                                                                                                                                                                                                                                                    
  3.750000E+02  1.250000E+02 -4.975000E+03  5.432536E+07  4.146959E+02  0.000000E+00  1.000000E+00  1.000000E+00  0.000000E+00  0.000000E+00  4.638906E+02  6.812393E+02  2.012497E-01  1.100000E-17  1.100000E-17  1.100000E-17  0.000000E+00  1.000000E+00                                                                                                                                                                                                                                                                                                                                                                                                                                                                                                                                                                    
  6.250000E+02  1.250000E+02 -4.975000E+03  5.440709E+07  3.227578E+02  0.000000E+00  1.000000E+00  1.000000E+00  0.000000E+00  0.000000E+00  6.774837E+01  7.474456E+02  2.007480E-01  1.100000E-17  1.100000E-17  1.100000E-17  0.000000E+00  1.000000E+00                                                                                                                                                                                                                                                                                                                                                                                                                                                                                                                                                                    
  8.750000E+02  1.250000E+02 -4.975000E+03  5.415569E+07  1.730040E+02  0.000000E+00  1.000000E+00  1.000000E+00  0.000000E+00  0.000000E+00  4.414927E+00  9.251520E+02  1.996875E-01  1.100000E-17  1.100000E-17  1.100000E-17  0.000000E+00  1.000000E+00                                                                                                                                                                                                                                                                                                                                                                                                                                                                                                                                                                    
  1.050000E+03  1.250000E+02 -4.975000E+03  5.393490E+07  3.902782E+01  0.000000E+00  1.000000E+00  1.000000E+00  0.000000E+00  0.000000E+00  4.871477E-02  1.014956E+03  2.981184E-01  1.100000E-10  1.100000E-10  1.100000E-10  0.000000E+00  1.000000E+00                                                                                                                                                                                                                                                                                                                                                                                                                                                                                                                                                                    
  1.225000E+03  1.250000E+02 -4.975000E+03  5.415569E+07  1.730040E+02  0.000000E+00  1.000000E+00  1.000000E+00  0.000000E+00  0.000000E+00  4.414925E+00  9.251521E+02  1.996875E-01  1.100000E-17  1.100000E-17  1.100000E-17  0.000000E+00  1.000000E+00                                                                                                                                                                                                                                                                                                                                                                                                                                                                                                                                                                    
  1.475000E+03  1.250000E+02 -4.975000E+03  5.440711E+07  3.227577E+02  0.000000E+00  1.000000E+00  1.000000E+00  0.000000E+00  0.000000E+00  6.774829E+01  7.474457E+02  2.007480E-01  1.100000E-17  1.100000E-17  1.100000E-17  0.000000E+00  1.000000E+00                                                                                                                                                                                                                                                                                                                                                                                                                                                                                                                                                                    
  1.725000E+03  1.250000E+02 -4.975000E+03  5.432540E+07  4.146958E+02  0.000000E+00  1.000000E+00  1.000000E+00  0.000000E+00  0.000000E+00  4.638903E+02  6.812394E+02  2.012498E-01  1.100000E-17  1.100000E-17  1.100000E-17  0.000000E+00  1.000000E+00                                                                                                                                                                                                                                                                                                                                                                                                                                                                                                                                                                    
  1.975000E+03  1.250000E+02 -4.975000E+03  5.452445E+07  4.480627E+02  4.033506E-01  5.966494E-01  1.000000E+00  0.000000E+00  0.000000E+00  5.550457E+02  6.816306E+02  2.015796E-01  1.100000E-17  1.100000E-17  1.100000E-17  1.000000E+00  1.000000E+00                                                                                                                                                                                                                                                                                                                                                                                                                                                                                                                                                                    
  1.250000E+02  1.250000E+02 -4.725000E+03  5.229415E+07  2.394017E+02  0.000000E+00  1.000000E+00  1.000000E+00  0.000000E+00  0.000000E+00  1.658549E+01  8.568091E+02  2.005472E-01  1.100000E-17  1.100000E-17  1.100000E-17  0.000000E+00  1.000000E+00                                                                                                                                                                                                                                                                                                                                                                                                                                                                                                                                                                    
  3.750000E+02  1.250000E+02 -4.725000E+03  5.190191E+07  2.126040E+02  0.000000E+00  1.000000E+00  1.000000E+00  0.000000E+00  0.000000E+00  1.009128E+01  8.856560E+02  2.001347E-01  1.100000E-17  1.100000E-17  1.100000E-17  0.000000E+00  1.000000E+00                                                                                                                                                                                                                                                                                                                                                                                                                                                                                                                                                                    
  6.250000E+02  1.250000E+02 -4.725000E+03  5.179649E+07  1.638359E+02  0.000000E+00  1.000000E+00  1.000000E+00  0.000000E+00  0.000000E+00  3.571847E+00  9.320589E+02  1.997747E-01  1.100000E-17  1.100000E-17  1.100000E-17  0.000000E+00  1.000000E+00                                                                                                                                                                                                                                                                                                                                                                                                                                                                                                                                                                    
  8.750000E+02  1.250000E+02 -4.725000E+03  5.160414E+07  9.325798E+01  0.000000E+00  1.000000E+00  1.000000E+00  0.000000E+00  0.000000E+00  4.749420E-01  9.854660E+02  1.992294E-01  1.100000E-17  1.100000E-17  1.100000E-17  0.000000E+00  1.000000E+00                                                                                                                                                                                                                                                                                                                                                                                                                                                                                                                                                                    
  1.050000E+03  1.250000E+02 -4.725000E+03  5.143836E+07  3.846390E+01  0.000000E+00  1.000000E+00  1.000000E+00  0.000000E+00  0.000000E+00  4.734199E-02  1.014199E+03  2.981945E-01  1.100000E-10  1.100000E-10  1.100000E-10  0.000000E+00  1.000000E+00                                                                                                                                                                                                                                                                                                                                                                                                                                                                                                                                                                    
  1.225000E+03  1.250000E+02 -4.725000E+03  5.160414E+07  9.325796E+01  0.000000E+00  1.000000E+00  1.000000E+00  0.000000E+00  0.000000E+00  4.749418E-01  9.854660E+02  1.992295E-01  1.100000E-17  1.100000E-17  1.100000E-17  0.000000E+00  1.000000E+00                                                                                                                                                                                                                                                                                                                                                                                                                                                                                                                                                                    
  1.475000E+03  1.250000E+02 -4.725000E+03  5.179650E+07  1.638359E+02  0.000000E+00  1.000000E+00  1.000000E+00  0.000000E+00  0.000000E+00  3.571844E+00  9.320590E+02  1.997747E-01  1.100000E-17  1.100000E-17  1.100000E-17  0.000000E+00  1.000000E+00                                                                                                                                                                                                                                                                                                                                                                                                                                                                                                                                                                    
  1.725000E+03  1.250000E+02 -4.725000E+03  5.190193E+07  2.126040E+02  0.000000E+00  1.000000E+00  1.000000E+00  0.000000E+00  0.000000E+00  1.009127E+01  8.856561E+02  2.001347E-01  1.100000E-17  1.100000E-17  1.100000E-17  0.000000E+00  1.000000E+00                                                                                                                                                                                                                                                                                                                                                                                                                                                                                                                                                                    