Title="TOUGHREACT V3.30-OMP flowdata.tec: P,T,SAT & Other Variables"                                                                                                                                                                                                                                                                                                                                                                                                                                                                                                                                                                                                                                                                                                                                                            
Variables= "X(m)"     "Y(m)"      "Z(m)"       "P(Pa)"        "T(C)"      "SatGas"      "SatLiq"          "X1"          "X2"    "Pcap(Pa)"  "DGas_kg/m3"  "DLiq_kg/m3"    "Porosity"  "Perm_X(m2)"  "Perm_Y(m2)"  "Perm_Z(m2)"    "Krel_Gas"    "Krel_Liq"                                                                                                                                                                                                                                                                                                                                                                                                                                                                                                                                                                      
Zone T= "1.00000000E+09 sec" I=     9 J=    10 K=    23 F=Point
  1.250000E+02  1.250000E+02 -5.425000E+03  6.203288E+07  2.055398E+02  0.000000E+00  1.000000E+00  1.000000E+00  0.000000E+00  0.000000E+00  8.787361E+00  8.988465E+02  2.019594E-01  1.100000E-17  1.100000E-17  1.100000E-17  0.000000E+00  1.000000E+00                                                                                                                                                                                                                                                                                                                                                                                                                                                                                                                                                                    
  3.750000E+02  1.250000E+02 -5.425000E+03  6.176426E+07  2.055266E+02  0.000000E+00  1.000000E+00  1.000000E+00  0.000000E+00  0.000000E+00  8.785060E+00  8.987049E+02  2.017858E-01  1.100000E-17  1.100000E-17  1.100000E-17  0.000000E+00  1.000000E+00                                                                                                                                                                                                                                                                                                                                                                                                                                                                                                                                                                    
  6.250000E+02  1.250000E+02 -5.425000E+03  6.097586E+07  2.054382E+02  0.000000E+00  1.000000E+00  1.000000E+00  0.000000E+00  0.000000E+00  8.769669E+00  8.983374E+02  2.012769E-01  1.100000E-17  1.100000E-17  1.100000E-17  0.000000E+00  1.000000E+00                                                                                                                                                                                                                                                                                                                                                                                                                                                                                                                                                                    
  8.750000E+02  1.250000E+02 -5.425000E+03  5.914057E+07  2.010641E+02  0.000000E+00  1.000000E+00  1.000000E+00  0.000000E+00  0.000000E+00  8.035022E+00  9.015754E+02  2.000720E-01  1.100000E-17  1.100000E-17  1.100000E-17  0.000000E+00  1.000000E+00                                                                                                                                                                                                                                                                                                                                                                                                                                                                                                                                                                    
  1.050000E+03  1.250000E+02 -5.425000E+03  5.760955E+07  6.851694E+01  0.000000E+00  1.000000E+00  1.000000E+00  0.000000E+00  0.000000E+00  1.865425E-01  1.002432E+03  2.974553E-01  1.100000E-10  1.100000E-10  1.100000E-10  0.000000E+00  1.000000E+00                                                                                                                                                                                                                                                                                                                                                                                                                                                                                                                                                                    
  1.225000E+03  1.250000E+02 -5.425000E+03  5.914057E+07  2.010641E+02  0.000000E+00  1.000000E+00  1.000000E+00  0.000000E+00  0.000000E+00  8.035022E+00  9.015754E+02  2.000720E-01  1.100000E-17  1.100000E-17  1.100000E-17  0.000000E+00  1.000000E+00                                                                                                                                                                                                                                                                                                                                                                                                                                                                                                                                                                    
  1.475000E+03  1.250000E+02 -5.425000E+03  6.097586E+07  2.054382E+02  0.000000E+00  1.000000E+00  1.000000E+00  0.000000E+00  0.000000E+00  8.769669E+00  8.983374E+02  2.012769E-01  1.100000E-17  1.100000E-17  1.100000E-17  0.000000E+00  1.000000E+00                                                                                                                                                                                                                                                                                                                                                                                                                                                                                                                                                                    
  1.725000E+03  1.250000E+02 -5.425000E+03  6.176426E+07  2.055266E+02  0.000000E+00  1.000000E+00  1.000000E+00  0.000000E+00  0.000000E+00  8.785060E+00  8.987049E+02  2.017858E-01  1.100000E-17  1.100000E-17  1.100000E-17  0.000000E+00  1.000000E+00                                                                                                                                                                                                                                                                                                                                                                                                                                                                                                                                                                    
  1.975000E+03  1.250000E+02 -5.425000E+03  6.203288E+07  2.055398E+02  0.000000E+00  1.000000E+00  1.000000E+00  0.000000E+00  0.000000E+00  8.787361E+00  8.988465E+02  2.019594E-01  1.100000E-17  1.100000E-17  1.100000E-17  0.000000E+00  1.000000E+00                                                                                                                                                                                                                                                                                                                                                                                                                                                                                                                                                                    
  1.250000E+02  1.250000E+02 -5.225000E+03  5.850527E+07  1.723640E+02  0.000000E+00  1.000000E+00  1.000000E+00  0.000000E+00  0.000000E+00  4.351340E+00  9.279501E+02  2.008166E-01  1.100000E-17  1.100000E-17  1.100000E-17  0.000000E+00  1.000000E+00                                                                                                                                                                                                                                                                                                                                                                                                                                                                                                                                                                    
  3.750000E+02  1.250000E+02 -5.225000E+03  5.827685E+07  1.723524E+02  0.000000E+00  1.000000E+00  1.000000E+00  0.000000E+00  0.000000E+00  4.350194E+00  9.278444E+02  2.006698E-01  1.100000E-17  1.100000E-17  1.100000E-17  0.000000E+00  1.000000E+00                                                                                                                                                                                                                                                                                                                                                                                                                                                                                                                                                                    
  6.250000E+02  1.250000E+02 -5.225000E+03  5.762808E+07  1.722748E+02  0.000000E+00  1.000000E+00  1.000000E+00  0.000000E+00  0.000000E+00  4.342531E+00  9.275835E+02  2.002532E-01  1.100000E-17  1.100000E-17  1.100000E-17  0.000000E+00  1.000000E+00                                                                                                                                                                                                                                                                                                                                                                                                                                                                                                                                                                    
  8.750000E+02  1.250000E+02 -5.225000E+03  5.628463E+07  1.685754E+02  0.000000E+00  1.000000E+00  1.000000E+00  0.000000E+00  0.000000E+00  3.989802E+00  9.301700E+02  1.993720E-01  1.100000E-17  1.100000E-17  1.100000E-17  0.000000E+00  1.000000E+00                                                                                                                                                                                                                                                                                                                                                                                                                                                                                                                                                                    
  1.050000E+03  1.250000E+02 -5.225000E+03  5.563963E+07  6.314954E+01  0.000000E+00  1.000000E+00  1.000000E+00  0.000000E+00  0.000000E+00  1.491098E-01  1.004501E+03  2.974982E-01  1.100000E-10  1.100000E-10  1.100000E-10  0.000000E+00  1.000000E+00                                                                                                                                                                                                                                                                                                                                                                                                                                                                                                                                                                    
  1.225000E+03  1.250000E+02 -5.225000E+03  5.628463E+07  1.685754E+02  0.000000E+00  1.000000E+00  1.000000E+00  0.000000E+00  0.000000E+00  3.989802E+00  9.301700E+02  1.993720E-01  1.100000E-17  1.100000E-17  1.100000E-17  0.000000E+00  1.000000E+00                                                                                                                                                                                                                                                                                                                                                                                                                                                                                                                                                                    
  1.475000E+03  1.250000E+02 -5.225000E+03  5.762808E+07  1.722748E+02  0.000000E+00  1.000000E+00  1.000000E+00  0.000000E+00  0.000000E+00  4.342531E+00  9.275835E+02  2.002532E-01  1.100000E-17  1.100000E-17  1.100000E-17  0.000000E+00  1.000000E+00                                                                                                                                                                                                                                                                                                                                                                                                                                                                                                                                                                    
  1.725000E+03  1.250000E+02 -5.225000E+03  5.827685E+07  1.723524E+02  0.000000E+00  1.000000E+00  1.000000E+00  0.000000E+00  0.000000E+00  4.350194E+00  9.278444E+02  2.006698E-01  1.100000E-17  1.100000E-17  1.100000E-17  0.000000E+00  1.000000E+00                                                                                                                                                                                                                                                                                                                                                                                                                                                                                                                                                                    
  1.975000E+03  1.250000E+02 -5.225000E+03  5.850527E+07  1.723640E+02  0.000000E+00  1.000000E+00  1.000000E+00  0.000000E+00  0.000000E+00  4.351340E+00  9.279501E+02  2.008166E-01  1.100000E-17  1.100000E-17  1.100000E-17  0.000000E+00  1.000000E+00                                                                                                                                                                                                                                                                                                                                                                                                                                                                                                                                                                    
  1.250000E+02  1.250000E+02 -4.975000E+03  5.458876E+07  1.642614E+02  0.000000E+00  1.000000E+00  1.000000E+00  0.000000E+00  0.000000E+00  3.607870E+00  9.330874E+02  1.999120E-01  1.100000E-17  1.100000E-17  1.100000E-17  0.000000E+00  1.000000E+00                                                                                                                                                                                                                                                                                                                                                                                                                                                                                                                                                                    
  3.750000E+02  1.250000E+02 -4.975000E+03  5.444286E+07  1.642542E+02  0.000000E+00  1.000000E+00  1.000000E+00  0.000000E+00  0.000000E+00  3.607256E+00  9.330209E+02  1.998187E-01  1.100000E-17  1.100000E-17  1.100000E-17  0.000000E+00  1.000000E+00                                                                                                                                                                                                                                                                                                                                                                                                                                                                                                                                                                    
  6.250000E+02  1.250000E+02 -4.975000E+03  5.403945E+07  1.641944E+02  0.000000E+00  1.000000E+00  1.000000E+00  0.000000E+00  0.000000E+00  3.602181E+00  9.328713E+02  1.995605E-01  1.100000E-17  1.100000E-17  1.100000E-17  0.000000E+00  1.000000E+00                                                                                                                                                                                                                                                                                                                                                                                                                                                                                                                                                                    
  8.750000E+02  1.250000E+02 -4.975000E+03  5.328192E+07  1.608710E+02  0.000000E+00  1.000000E+00  1.000000E+00  0.000000E+00  0.000000E+00  3.328758E+00  9.353676E+02  1.990575E-01  1.100000E-17  1.100000E-17  1.100000E-17  0.000000E+00  1.000000E+00                                                                                                                                                                                                                                                                                                                                                                                                                                                                                                                                                                    
  1.050000E+03  1.250000E+02 -4.975000E+03  5.317395E+07  6.425143E+01  0.000000E+00  1.000000E+00  1.000000E+00  0.000000E+00  0.000000E+00  1.562320E-01  1.002969E+03  2.976185E-01  1.100000E-10  1.100000E-10  1.100000E-10  0.000000E+00  1.000000E+00                                                                                                                                                                                                                                                                                                                                                                                                                                                                                                                                                                    
  1.225000E+03  1.250000E+02 -4.975000E+03  5.328192E+07  1.608710E+02  0.000000E+00  1.000000E+00  1.000000E+00  0.000000E+00  0.000000E+00  3.328758E+00  9.353676E+02  1.990575E-01  1.100000E-17  1.100000E-17  1.100000E-17  0.000000E+00  1.000000E+00                                                                                                                                                                                                                                                                                                                                                                                                                                                                                                                                                                    
  1.475000E+03  1.250000E+02 -4.975000E+03  5.403945E+07  1.641944E+02  0.000000E+00  1.000000E+00  1.000000E+00  0.000000E+00  0.000000E+00  3.602181E+00  9.328713E+02  1.995605E-01  1.100000E-17  1.100000E-17  1.100000E-17  0.000000E+00  1.000000E+00                                                                                                                                                                                                                                                                                                                                                                                                                                                                                                                                                                    
  1.725000E+03  1.250000E+02 -4.975000E+03  5.444286E+07  1.642542E+02  0.000000E+00  1.000000E+00  1.000000E+00  0.000000E+00  0.000000E+00  3.607256E+00  9.330209E+02  1.998187E-01  1.100000E-17  1.100000E-17  1.100000E-17  0.000000E+00  1.000000E+00                                                                                                                                                                                                                                                                                                                                                                                                                                                                                                                                                                    
  1.975000E+03  1.250000E+02 -4.975000E+03  5.458876E+07  1.642614E+02  0.000000E+00  1.000000E+00  1.000000E+00  0.000000E+00  0.000000E+00  3.607870E+00  9.330874E+02  1.999120E-01  1.100000E-17  1.100000E-17  1.100000E-17  0.000000E+00  1.000000E+00                                                                                                                                                                                                                                                                                                                                                                                                                                                                                                                                                                    
  1.250000E+02  1.250000E+02 -4.725000E+03  5.101849E+07  1.566946E+02  0.000000E+00  1.000000E+00  1.000000E+00  0.000000E+00  0.000000E+00  3.008993E+00  9.378237E+02  1.992353E-01  1.100000E-17  1.100000E-17  1.100000E-17  0.000000E+00  1.000000E+00                                                                                                                                                                                                                                                                                                                                                                                                                                                                                                                                                                    
  3.750000E+02  1.250000E+02 -4.725000E+03  5.097004E+07  1.566527E+02  0.000000E+00  1.000000E+00  1.000000E+00  0.000000E+00  0.000000E+00  3.005913E+00  9.378356E+02  1.992041E-01  1.100000E-17  1.100000E-17  1.100000E-17  0.000000E+00  1.000000E+00                                                                                                                                                                                                                                                                                                                                                                                                                                                                                                                                                                    
  6.250000E+02  1.250000E+02 -4.725000E+03  5.082174E+07  1.564533E+02  0.000000E+00  1.000000E+00  1.000000E+00  0.000000E+00  0.000000E+00  2.991299E+00  9.379323E+02  1.991084E-01  1.100000E-17  1.100000E-17  1.100000E-17  0.000000E+00  1.000000E+00                                                                                                                                                                                                                                                                                                                                                                                                                                                                                                                                                                    
  8.750000E+02  1.250000E+02 -4.725000E+03  5.051228E+07  1.526260E+02  0.000000E+00  1.000000E+00  1.000000E+00  0.000000E+00  0.000000E+00  2.721615E+00  9.410129E+02  1.988885E-01  1.100000E-17  1.100000E-17  1.100000E-17  0.000000E+00  1.000000E+00                                                                                                                                                                                                                                                                                                                                                                                                                                                                                                                                                                    
  1.050000E+03  1.250000E+02 -4.725000E+03  5.071137E+07  6.017032E+01  0.000000E+00  1.000000E+00  1.000000E+00  0.000000E+00  0.000000E+00  1.312000E-01  1.004101E+03  2.976954E-01  1.100000E-10  1.100000E-10  1.100000E-10  0.000000E+00  1.000000E+00                                                                                                                                                                                                                                                                                                                                                                                                                                                                                                                                                                    
  1.225000E+03  1.250000E+02 -4.725000E+03  5.051228E+07  1.526260E+02  0.000000E+00  1.000000E+00  1.000000E+00  0.000000E+00  0.000000E+00  2.721615E+00  9.410129E+02  1.988885E-01  1.100000E-17  1.100000E-17  1.100000E-17  0.000000E+00  1.000000E+00                                                                                                                                                                                                                                                                                                                                                                                                                                                                                                                                                                    
  1.475000E+03  1.250000E+02 -4.725000E+03  5.082174E+07  1.564533E+02  0.000000E+00  1.000000E+00  1.000000E+00  0.000000E+00  0.000000E+00  2.991299E+00  9.379323E+02  1.991084E-01  1.100000E-17  1.100000E-17  1.100000E-17  0.000000E+00  1.000000E+00                                                                                                                                                                                                                                                                                                                                                                                                                                                                                                                                                                    
  1.725000E+03  1.250000E+02 -4.725000E+03  5.097004E+07  1.566527E+02  0.000000E+00  1.000000E+00  1.000000E+00  0.000000E+00  0.000000E+00  3.005913E+00  9.378356E+02  1.992041E-01  1.100000E-17  1.100000E-17  1.100000E-17  0.000000E+00  1.000000E+00                                                                                                                                                                                                                                                                                                                                                                                                                                                                                                                                                                    