Title="TOUGHREACT V3.30-OMP flowvector.tec: Liq & Gas Fluxes (kg/s/m^2), Pore Velocities (m/s), & Heat Fluxes (J/s/m2)"                                                                                                                                                                                                                                                                                                                                                                                                                                                                                                                                                                                                                                                                                                         
Variables= "X(m)"     "Y(m)"      "Z(m)"     "FluxLiq"   "FluxLiq_X"   "FluxLiq_Y"   "FluxLiq_Z"   "PorVelLiq"  "PorVelLiqX"  "PorVelLiqY"  "PorVelLiqZ"     "FluxGas"   "FluxGas_X"   "FluxGas_Y"   "FluxGas_Z"   "PorVelGas"  "PorVelGasX"  "PorVelGasY"  "PorVelGasZ"    "HeatFlux"  "HeatFlux_X"  "HeatFlux_Y"  "HeatFlux_Z"                                                                                                                                                                                                                                                                                                                                                                                                                                                                                                
Zone T= "1.00000000E+11 sec" I=     9 J=    10 K=    23 F=Point
  1.250000E+02  1.250000E+02 -5.425000E+03  5.529433E-10  6.163250E-11 -1.841277E-15 -5.494977E-10  3.267781E-12  3.655809E-13 -1.092165E-17 -3.247267E-12  0.000000E+00  0.000000E+00  0.000000E+00  0.000000E+00  0.000000E+00  0.000000E+00  0.000000E+00  0.000000E+00  6.674135E-02 -1.155235E-04 -2.488051E-09  6.674125E-02                                                                                                                                                                                                                                                                                                                                                                                                                                                                                              
  3.750000E+02  1.250000E+02 -5.425000E+03  5.802797E-10  1.870733E-10 -5.168124E-16 -5.492978E-10  3.430578E-12  1.109678E-12 -3.065570E-18 -3.246148E-12  0.000000E+00  0.000000E+00  0.000000E+00  0.000000E+00  0.000000E+00  0.000000E+00  0.000000E+00  0.000000E+00  6.678941E-02 -4.538847E-04 -8.242231E-10  6.678787E-02                                                                                                                                                                                                                                                                                                                                                                                                                                                                                              
  6.250000E+02  1.250000E+02 -5.425000E+03  6.166595E-10  3.004505E-10  2.189328E-15 -5.385150E-10  3.647671E-12  1.782330E-12  1.298715E-17 -3.182578E-12  0.000000E+00  0.000000E+00  0.000000E+00  0.000000E+00  0.000000E+00  0.000000E+00  0.000000E+00  0.000000E+00  6.698560E-02 -1.254493E-03  2.788469E-09  6.697385E-02                                                                                                                                                                                                                                                                                                                                                                                                                                                                                              
  8.750000E+02  1.250000E+02 -5.425000E+03  5.464503E-10  2.834465E-10  9.783638E-16 -4.671895E-10  3.233089E-12  1.681651E-12  5.804456E-18 -2.761324E-12  0.000000E+00  0.000000E+00  0.000000E+00  0.000000E+00  0.000000E+00  0.000000E+00  0.000000E+00  0.000000E+00  6.783875E-02 -3.718407E-03  2.861074E-10  6.773676E-02                                                                                                                                                                                                                                                                                                                                                                                                                                                                                              
  1.050000E+03  1.250000E+02 -5.425000E+03  1.820212E-10  3.531755E-15  6.091173E-16 -1.820212E-10  1.075992E-12  2.095589E-17  3.614686E-18 -1.075992E-12  0.000000E+00  0.000000E+00  0.000000E+00  0.000000E+00  0.000000E+00  0.000000E+00  0.000000E+00  0.000000E+00  7.019450E-02  1.589165E-09 -5.714432E-10  7.019450E-02                                                                                                                                                                                                                                                                                                                                                                                                                                                                                              
  1.225000E+03  1.250000E+02 -5.425000E+03  5.464489E-10 -2.834377E-10  6.893102E-16 -4.671932E-10  3.233080E-12 -1.681599E-12  4.089553E-18 -2.761347E-12  0.000000E+00  0.000000E+00  0.000000E+00  0.000000E+00  0.000000E+00  0.000000E+00  0.000000E+00  0.000000E+00  6.783874E-02  3.718411E-03  3.667687E-10  6.773676E-02                                                                                                                                                                                                                                                                                                                                                                                                                                                                                              
  1.475000E+03  1.250000E+02 -5.425000E+03  6.166592E-10 -3.004449E-10 -6.702846E-16 -5.385178E-10  3.647669E-12 -1.782297E-12 -3.976146E-18 -3.182594E-12  0.000000E+00  0.000000E+00  0.000000E+00  0.000000E+00  0.000000E+00  0.000000E+00  0.000000E+00  0.000000E+00  6.698560E-02  1.254491E-03 -1.620173E-09  6.697385E-02                                                                                                                                                                                                                                                                                                                                                                                                                                                                                              
  1.725000E+03  1.250000E+02 -5.425000E+03  5.802828E-10 -1.870739E-10 -1.554858E-15 -5.493009E-10  3.430596E-12 -1.109682E-12 -9.222933E-18 -3.246166E-12  0.000000E+00  0.000000E+00  0.000000E+00  0.000000E+00  0.000000E+00  0.000000E+00  0.000000E+00  0.000000E+00  6.678941E-02  4.538793E-04 -1.858887E-09  6.678786E-02                                                                                                                                                                                                                                                                                                                                                                                                                                                                                              
  1.975000E+03  1.250000E+02 -5.425000E+03  5.529439E-10 -6.163336E-11  1.423605E-16 -5.494982E-10  3.267784E-12 -3.655860E-13  8.444199E-19 -3.247270E-12  0.000000E+00  0.000000E+00  0.000000E+00  0.000000E+00  0.000000E+00  0.000000E+00  0.000000E+00  0.000000E+00  6.674135E-02  1.155233E-04 -1.362623E-09  6.674125E-02                                                                                                                                                                                                                                                                                                                                                                                                                                                                                              
  1.250000E+02  1.250000E+02 -5.225000E+03  1.881507E-09  1.666542E-11 -1.898428E-15 -1.881433E-09  1.105716E-11  9.822145E-14 -1.118872E-17 -1.105672E-11  0.000000E+00  0.000000E+00  0.000000E+00  0.000000E+00  0.000000E+00  0.000000E+00  0.000000E+00  0.000000E+00  1.439532E-01 -1.229159E-04 -3.533406E-09  1.439532E-01                                                                                                                                                                                                                                                                                                                                                                                                                                                                                              
  3.750000E+02  1.250000E+02 -5.225000E+03  1.868124E-09  3.897118E-11 -1.043208E-15 -1.867718E-09  1.097886E-11  2.296892E-13 -6.148436E-18 -1.097646E-11  0.000000E+00  0.000000E+00  0.000000E+00  0.000000E+00  0.000000E+00  0.000000E+00  0.000000E+00  0.000000E+00  1.440733E-01 -4.225082E-04 -1.696976E-09  1.440727E-01                                                                                                                                                                                                                                                                                                                                                                                                                                                                                              
  6.250000E+02  1.250000E+02 -5.225000E+03  1.816581E-09  2.395495E-11  7.699263E-16 -1.816423E-09  1.067651E-11  1.411884E-13  4.537948E-18 -1.067557E-11  0.000000E+00  0.000000E+00  0.000000E+00  0.000000E+00  0.000000E+00  0.000000E+00  0.000000E+00  0.000000E+00  1.444599E-01 -8.302794E-04  1.203298E-09  1.444575E-01                                                                                                                                                                                                                                                                                                                                                                                                                                                                                              
  8.750000E+02  1.250000E+02 -5.225000E+03  1.654990E-09 -3.382109E-11  1.244141E-15 -1.654645E-09  9.726300E-12 -1.993582E-13  7.333439E-18 -9.724257E-12  0.000000E+00  0.000000E+00  0.000000E+00  0.000000E+00  0.000000E+00  0.000000E+00  0.000000E+00  0.000000E+00  1.456373E-01 -9.769010E-04  1.045194E-09  1.456341E-01                                                                                                                                                                                                                                                                                                                                                                                                                                                                                              
  1.050000E+03  1.250000E+02 -5.225000E+03  1.298517E-09 -1.698782E-15  7.650169E-16 -1.298517E-09  7.622971E-12 -1.001340E-17  4.509456E-18 -7.622971E-12  0.000000E+00  0.000000E+00  0.000000E+00  0.000000E+00  0.000000E+00  0.000000E+00  0.000000E+00  0.000000E+00  1.483986E-01 -5.922491E-09  1.537524E-09  1.483986E-01                                                                                                                                                                                                                                                                                                                                                                                                                                                                                              
  1.225000E+03  1.250000E+02 -5.225000E+03  1.654992E-09  3.382509E-11  3.397122E-15 -1.654646E-09  9.726310E-12  1.993817E-13  2.002392E-17 -9.724266E-12  0.000000E+00  0.000000E+00  0.000000E+00  0.000000E+00  0.000000E+00  0.000000E+00  0.000000E+00  0.000000E+00  1.456373E-01  9.769006E-04  3.993824E-09  1.456341E-01                                                                                                                                                                                                                                                                                                                                                                                                                                                                                              
  1.475000E+03  1.250000E+02 -5.225000E+03  1.816582E-09 -2.395084E-11  7.156296E-16 -1.816425E-09  1.067651E-11 -1.411642E-13  4.217923E-18 -1.067558E-11  0.000000E+00  0.000000E+00  0.000000E+00  0.000000E+00  0.000000E+00  0.000000E+00  0.000000E+00  0.000000E+00  1.444599E-01  8.302768E-04  3.999126E-10  1.444575E-01                                                                                                                                                                                                                                                                                                                                                                                                                                                                                              
  1.725000E+03  1.250000E+02 -5.225000E+03  1.868124E-09 -3.897167E-11  1.700138E-15 -1.867717E-09  1.097886E-11 -2.296920E-13  1.002023E-17 -1.097646E-11  0.000000E+00  0.000000E+00  0.000000E+00  0.000000E+00  0.000000E+00  0.000000E+00  0.000000E+00  0.000000E+00  1.440733E-01  4.224999E-04  2.223890E-09  1.440727E-01                                                                                                                                                                                                                                                                                                                                                                                                                                                                                              
  1.975000E+03  1.250000E+02 -5.225000E+03  1.881501E-09 -1.666431E-11  3.915472E-17 -1.881427E-09  1.105713E-11 -9.821491E-14  2.307653E-19 -1.105669E-11  0.000000E+00  0.000000E+00  0.000000E+00  0.000000E+00  0.000000E+00  0.000000E+00  0.000000E+00  0.000000E+00  1.439532E-01  1.229157E-04 -9.754480E-10  1.439532E-01                                                                                                                                                                                                                                                                                                                                                                                                                                                                                              
  1.250000E+02  1.250000E+02 -4.975000E+03  3.203541E-09 -6.854015E-12 -1.561151E-15 -3.203534E-09  1.868015E-11 -4.002848E-14 -9.117314E-18 -1.868011E-11  0.000000E+00  0.000000E+00  0.000000E+00  0.000000E+00  0.000000E+00  0.000000E+00  0.000000E+00  0.000000E+00  1.625641E-01 -8.470622E-05 -8.101057E-10  1.625641E-01                                                                                                                                                                                                                                                                                                                                                                                                                                                                                              
  3.750000E+02  1.250000E+02 -4.975000E+03  3.169831E-09 -2.561562E-11 -1.316184E-15 -3.169728E-09  1.848379E-11 -1.496006E-13 -7.686748E-18 -1.848318E-11  0.000000E+00  0.000000E+00  0.000000E+00  0.000000E+00  0.000000E+00  0.000000E+00  0.000000E+00  0.000000E+00  1.626963E-01 -2.614432E-04  2.481489E-10  1.626961E-01                                                                                                                                                                                                                                                                                                                                                                                                                                                                                              
  6.250000E+02  1.250000E+02 -4.975000E+03  3.085261E-09 -5.069305E-11  9.410917E-16 -3.084844E-09  1.799072E-11 -2.960630E-13  5.496244E-18 -1.798828E-11  0.000000E+00  0.000000E+00  0.000000E+00  0.000000E+00  0.000000E+00  0.000000E+00  0.000000E+00  0.000000E+00  1.630251E-01 -4.081759E-04  2.029493E-09  1.630246E-01                                                                                                                                                                                                                                                                                                                                                                                                                                                                                              
  8.750000E+02  1.250000E+02 -4.975000E+03  2.932941E-09 -4.633927E-11  7.448173E-16 -2.932575E-09  1.710147E-11 -2.706389E-13  4.350047E-18 -1.709933E-11  0.000000E+00  0.000000E+00  0.000000E+00  0.000000E+00  0.000000E+00  0.000000E+00  0.000000E+00  0.000000E+00  1.636212E-01 -3.122040E-04  1.567169E-09  1.636209E-01                                                                                                                                                                                                                                                                                                                                                                                                                                                                                              
  1.050000E+03  1.250000E+02 -4.975000E+03  2.844920E-09  3.379009E-16 -7.487844E-17 -2.844920E-09  1.658644E-11  1.973499E-18 -4.373241E-19 -1.658644E-11  0.000000E+00  0.000000E+00  0.000000E+00  0.000000E+00  0.000000E+00  0.000000E+00  0.000000E+00  0.000000E+00  1.639781E-01 -2.573533E-09 -2.343420E-10  1.639781E-01                                                                                                                                                                                                                                                                                                                                                                                                                                                                                              
  1.225000E+03  1.250000E+02 -4.975000E+03  2.932939E-09  4.634425E-11  7.324789E-16 -2.932572E-09  1.710146E-11  2.706679E-13  4.277986E-18 -1.709932E-11  0.000000E+00  0.000000E+00  0.000000E+00  0.000000E+00  0.000000E+00  0.000000E+00  0.000000E+00  0.000000E+00  1.636212E-01  3.122040E-04  4.205490E-10  1.636209E-01                                                                                                                                                                                                                                                                                                                                                                                                                                                                                              
  1.475000E+03  1.250000E+02 -4.975000E+03  3.085260E-09  5.069561E-11  2.086321E-16 -3.084844E-09  1.799071E-11  2.960779E-13  1.218471E-18 -1.798828E-11  0.000000E+00  0.000000E+00  0.000000E+00  0.000000E+00  0.000000E+00  0.000000E+00  0.000000E+00  0.000000E+00  1.630251E-01  4.081692E-04 -1.370023E-09  1.630246E-01                                                                                                                                                                                                                                                                                                                                                                                                                                                                                              
  1.725000E+03  1.250000E+02 -4.975000E+03  3.169825E-09  2.561681E-11  1.251449E-15 -3.169721E-09  1.848375E-11  1.496075E-13  7.308683E-18 -1.848315E-11  0.000000E+00  0.000000E+00  0.000000E+00  0.000000E+00  0.000000E+00  0.000000E+00  0.000000E+00  0.000000E+00  1.626963E-01  2.614349E-04  9.778878E-10  1.626961E-01                                                                                                                                                                                                                                                                                                                                                                                                                                                                                              
  1.975000E+03  1.250000E+02 -4.975000E+03  3.203534E-09  6.857277E-12 -2.825809E-15 -3.203527E-09  1.868011E-11  4.004753E-14 -1.650307E-17 -1.868007E-11  0.000000E+00  0.000000E+00  0.000000E+00  0.000000E+00  0.000000E+00  0.000000E+00  0.000000E+00  0.000000E+00  1.625641E-01  8.470707E-05 -2.119438E-09  1.625641E-01                                                                                                                                                                                                                                                                                                                                                                                                                                                                                              
  1.250000E+02  1.250000E+02 -4.725000E+03  4.049982E-09 -4.855879E-12  2.057832E-16 -4.049979E-09  2.341922E-11 -2.808222E-14  1.190071E-18 -2.341920E-11  0.000000E+00  0.000000E+00  0.000000E+00  0.000000E+00  0.000000E+00  0.000000E+00  0.000000E+00  0.000000E+00  1.761735E-01 -4.142203E-05  1.209703E-09  1.761735E-01                                                                                                                                                                                                                                                                                                                                                                                                                                                                                              
  3.750000E+02  1.250000E+02 -4.725000E+03  4.007628E-09 -1.527053E-11  1.541616E-16 -4.007598E-09  2.317438E-11 -8.831194E-14  8.915397E-19 -2.317421E-11  0.000000E+00  0.000000E+00  0.000000E+00  0.000000E+00  0.000000E+00  0.000000E+00  0.000000E+00  0.000000E+00  1.762735E-01 -1.195781E-04  7.050614E-10  1.762734E-01                                                                                                                                                                                                                                                                                                                                                                                                                                                                                              
  6.250000E+02  1.250000E+02 -4.725000E+03  3.919860E-09 -2.380454E-11 -5.121368E-16 -3.919788E-09  2.266689E-11 -1.376664E-13 -2.961787E-18 -2.266647E-11  0.000000E+00  0.000000E+00  0.000000E+00  0.000000E+00  0.000000E+00  0.000000E+00  0.000000E+00  0.000000E+00  1.764829E-01 -1.639133E-04 -6.214202E-11  1.764828E-01                                                                                                                                                                                                                                                                                                                                                                                                                                                                                              
  8.750000E+02  1.250000E+02 -4.725000E+03  3.807632E-09 -1.699781E-11 -1.942987E-16 -3.807594E-09  2.201768E-11 -9.830217E-14 -1.123677E-18 -2.201746E-11  0.000000E+00  0.000000E+00  0.000000E+00  0.000000E+00  0.000000E+00  0.000000E+00  0.000000E+00  0.000000E+00  1.767578E-01 -1.054614E-04  1.237745E-10  1.767578E-01                                                                                                                                                                                                                                                                                                                                                                                                                                                                                              
  1.050000E+03  1.250000E+02 -4.725000E+03  3.782300E-09  1.463251E-17  1.047244E-16 -3.782300E-09  2.187100E-11  8.462587E-20  6.056474E-19 -2.187100E-11  0.000000E+00  0.000000E+00  0.000000E+00  0.000000E+00  0.000000E+00  0.000000E+00  0.000000E+00  0.000000E+00  1.768241E-01 -2.904449E-09 -1.410775E-10  1.768241E-01                                                                                                                                                                                                                                                                                                                                                                                                                                                                                              
  1.225000E+03  1.250000E+02 -4.725000E+03  3.807630E-09  1.699991E-11  1.179715E-15 -3.807592E-09  2.201767E-11  9.831432E-14  6.822580E-18 -2.201745E-11  0.000000E+00  0.000000E+00  0.000000E+00  0.000000E+00  0.000000E+00  0.000000E+00  0.000000E+00  0.000000E+00  1.767578E-01  1.054560E-04  2.249563E-10  1.767578E-01                                                                                                                                                                                                                                                                                                                                                                                                                                                                                              
  1.475000E+03  1.250000E+02 -4.725000E+03  3.919863E-09  2.380681E-11 -1.890225E-16 -3.919790E-09  2.266690E-11  1.376795E-13 -1.093154E-18 -2.266649E-11  0.000000E+00  0.000000E+00  0.000000E+00  0.000000E+00  0.000000E+00  0.000000E+00  0.000000E+00  0.000000E+00  1.764829E-01  1.639049E-04 -1.122755E-09  1.764828E-01                                                                                                                                                                                                                                                                                                                                                                                                                                                                                              
  1.725000E+03  1.250000E+02 -4.725000E+03  4.007623E-09  1.527093E-11 -4.391536E-16 -4.007594E-09  2.317436E-11  8.831424E-14 -2.539691E-18 -2.317419E-11  0.000000E+00  0.000000E+00  0.000000E+00  0.000000E+00  0.000000E+00  0.000000E+00  0.000000E+00  0.000000E+00  1.762735E-01  1.195690E-04 -2.435354E-10  1.762734E-01                                                                                                                                                                                                                                                                                                                                                                                                                                                                                              