Title="TOUGHREACT V3.30-OMP flowvector.tec: Liq & Gas Fluxes (kg/s/m^2), Pore Velocities (m/s), & Heat Fluxes (J/s/m2)"                                                                                                                                                                                                                                                                                                                                                                                                                                                                                                                                                                                                                                                                                                         
Variables= "X(m)"     "Y(m)"      "Z(m)"     "FluxLiq"   "FluxLiq_X"   "FluxLiq_Y"   "FluxLiq_Z"   "PorVelLiq"  "PorVelLiqX"  "PorVelLiqY"  "PorVelLiqZ"     "FluxGas"   "FluxGas_X"   "FluxGas_Y"   "FluxGas_Z"   "PorVelGas"  "PorVelGasX"  "PorVelGasY"  "PorVelGasZ"    "HeatFlux"  "HeatFlux_X"  "HeatFlux_Y"  "HeatFlux_Z"                                                                                                                                                                                                                                                                                                                                                                                                                                                                                                
Zone T= "1.00000000E+07 sec" I=     9 J=    10 K=    23 F=Point
  1.250000E+02  1.250000E+02 -5.425000E+03  3.721169E-07 -5.571986E-14  8.642847E-15  3.721169E-07  2.130584E-09 -3.203677E-16  4.969304E-17  2.130584E-09  0.000000E+00  0.000000E+00  0.000000E+00  0.000000E+00  0.000000E+00  0.000000E+00  0.000000E+00  0.000000E+00  4.786386E-01 -5.629229E-08  9.074860E-09  4.786386E-01                                                                                                                                                                                                                                                                                                                                                                                                                                                                                              
  3.750000E+02  1.250000E+02 -5.425000E+03  3.721169E-07 -1.064552E-12 -9.374856E-15  3.721169E-07  2.130584E-09 -6.120762E-15 -5.390181E-17  2.130584E-09  0.000000E+00  0.000000E+00  0.000000E+00  0.000000E+00  0.000000E+00  0.000000E+00  0.000000E+00  0.000000E+00  4.786386E-01 -1.083477E-06 -1.015767E-08  4.786386E-01                                                                                                                                                                                                                                                                                                                                                                                                                                                                                              
  6.250000E+02  1.250000E+02 -5.425000E+03  3.721180E-07 -1.558742E-11 -1.982492E-14  3.721180E-07  2.130590E-09 -8.962166E-14 -1.139857E-16  2.130590E-09  0.000000E+00  0.000000E+00  0.000000E+00  0.000000E+00  0.000000E+00  0.000000E+00  0.000000E+00  0.000000E+00  4.786396E-01 -1.587336E-05 -2.071385E-08  4.786396E-01                                                                                                                                                                                                                                                                                                                                                                                                                                                                                              
  8.750000E+02  1.250000E+02 -5.425000E+03  3.721336E-07 -1.824994E-10  4.667230E-15  3.721336E-07  2.130680E-09 -1.049301E-12  2.683477E-17  2.130679E-09  0.000000E+00  0.000000E+00  0.000000E+00  0.000000E+00  0.000000E+00  0.000000E+00  0.000000E+00  0.000000E+00  4.786556E-01 -1.946195E-04  4.563838E-09  4.786556E-01                                                                                                                                                                                                                                                                                                                                                                                                                                                                                              
  1.050000E+03  1.250000E+02 -5.425000E+03  3.722719E-07 -1.291053E-14  1.032639E-14  3.722719E-07  2.131471E-09 -7.423053E-17  5.937280E-17  2.131471E-09  0.000000E+00  0.000000E+00  0.000000E+00  0.000000E+00  0.000000E+00  0.000000E+00  0.000000E+00  0.000000E+00  4.788051E-01 -1.375128E-08  1.089790E-08  4.788051E-01                                                                                                                                                                                                                                                                                                                                                                                                                                                                                              
  1.225000E+03  1.250000E+02 -5.425000E+03  3.721336E-07  1.824648E-10  8.306286E-15  3.721336E-07  2.130680E-09  1.049103E-12  4.775794E-17  2.130679E-09  0.000000E+00  0.000000E+00  0.000000E+00  0.000000E+00  0.000000E+00  0.000000E+00  0.000000E+00  0.000000E+00  4.786556E-01  1.945835E-04  8.789608E-09  4.786556E-01                                                                                                                                                                                                                                                                                                                                                                                                                                                                                              
  1.475000E+03  1.250000E+02 -5.425000E+03  3.721180E-07  1.558557E-11  1.877982E-14  3.721180E-07  2.130590E-09  8.961100E-14  1.079767E-16  2.130590E-09  0.000000E+00  0.000000E+00  0.000000E+00  0.000000E+00  0.000000E+00  0.000000E+00  0.000000E+00  0.000000E+00  4.786397E-01  1.587148E-05  1.973561E-08  4.786397E-01                                                                                                                                                                                                                                                                                                                                                                                                                                                                                              
  1.725000E+03  1.250000E+02 -5.425000E+03  3.721170E-07  1.101242E-12 -9.928040E-15  3.721170E-07  2.130584E-09  6.331716E-15 -5.708240E-17  2.130584E-09  0.000000E+00  0.000000E+00  0.000000E+00  0.000000E+00  0.000000E+00  0.000000E+00  0.000000E+00  0.000000E+00  4.786386E-01  1.121928E-06 -1.052357E-08  4.786386E-01                                                                                                                                                                                                                                                                                                                                                                                                                                                                                              
  1.975000E+03  1.250000E+02 -5.425000E+03  3.721169E-07  7.266354E-14 -1.681693E-14  3.721169E-07  2.130584E-09  4.177874E-16 -9.669089E-17  2.130584E-09  0.000000E+00  0.000000E+00  0.000000E+00  0.000000E+00  0.000000E+00  0.000000E+00  0.000000E+00  0.000000E+00  4.786386E-01  7.431930E-08 -1.770298E-08  4.786386E-01                                                                                                                                                                                                                                                                                                                                                                                                                                                                                              
  1.250000E+02  1.250000E+02 -5.225000E+03  8.292290E-07 -1.457856E-14  3.337546E-16  8.292290E-07  4.723338E-09 -8.310899E-17  1.902657E-18  4.723338E-09  0.000000E+00  0.000000E+00  0.000000E+00  0.000000E+00  0.000000E+00  0.000000E+00  0.000000E+00  0.000000E+00  1.027639E+00 -1.433125E-08  3.179338E-10  1.027639E+00                                                                                                                                                                                                                                                                                                                                                                                                                                                                                              
  3.750000E+02  1.250000E+02 -5.225000E+03  8.292291E-07 -2.160127E-13 -1.181906E-15  8.292291E-07  4.723338E-09 -1.231438E-15 -6.737770E-18  4.723338E-09  0.000000E+00  0.000000E+00  0.000000E+00  0.000000E+00  0.000000E+00  0.000000E+00  0.000000E+00  0.000000E+00  1.027639E+00 -2.122948E-07 -1.158877E-09  1.027639E+00                                                                                                                                                                                                                                                                                                                                                                                                                                                                                              
  6.250000E+02  1.250000E+02 -5.225000E+03  8.292303E-07 -2.277819E-12  7.707952E-17  8.292303E-07  4.723345E-09 -1.298532E-14  4.394124E-19  4.723345E-09  0.000000E+00  0.000000E+00  0.000000E+00  0.000000E+00  0.000000E+00  0.000000E+00  0.000000E+00  0.000000E+00  1.027641E+00 -2.238604E-06  1.018651E-10  1.027641E+00                                                                                                                                                                                                                                                                                                                                                                                                                                                                                              
  8.750000E+02  1.250000E+02 -5.225000E+03  8.292478E-07 -1.434171E-11  6.243451E-16  8.292478E-07  4.723445E-09 -8.175874E-14  3.559246E-18  4.723445E-09  0.000000E+00  0.000000E+00  0.000000E+00  0.000000E+00  0.000000E+00  0.000000E+00  0.000000E+00  0.000000E+00  1.027658E+00 -1.409806E-05  6.472711E-10  1.027658E+00                                                                                                                                                                                                                                                                                                                                                                                                                                                                                              
  1.050000E+03  1.250000E+02 -5.225000E+03  8.293943E-07 -1.202225E-15  8.427618E-16  8.293943E-07  4.724284E-09 -6.853605E-18  4.804389E-18  4.724284E-09  0.000000E+00  0.000000E+00  0.000000E+00  0.000000E+00  0.000000E+00  0.000000E+00  0.000000E+00  0.000000E+00  1.027816E+00 -1.142205E-09  8.286084E-10  1.027816E+00                                                                                                                                                                                                                                                                                                                                                                                                                                                                                              
  1.225000E+03  1.250000E+02 -5.225000E+03  8.292478E-07  1.434073E-11  5.426067E-16  8.292478E-07  4.723445E-09  8.175314E-14  3.093274E-18  4.723445E-09  0.000000E+00  0.000000E+00  0.000000E+00  0.000000E+00  0.000000E+00  0.000000E+00  0.000000E+00  0.000000E+00  1.027658E+00  1.409714E-05  5.355188E-10  1.027658E+00                                                                                                                                                                                                                                                                                                                                                                                                                                                                                              
  1.475000E+03  1.250000E+02 -5.225000E+03  8.292303E-07  2.276922E-12  1.244288E-15  8.292303E-07  4.723345E-09  1.298020E-14  7.093396E-18  4.723345E-09  0.000000E+00  0.000000E+00  0.000000E+00  0.000000E+00  0.000000E+00  0.000000E+00  0.000000E+00  0.000000E+00  1.027641E+00  2.237703E-06  1.205498E-09  1.027641E+00                                                                                                                                                                                                                                                                                                                                                                                                                                                                                              
  1.725000E+03  1.250000E+02 -5.225000E+03  8.292291E-07  2.165103E-13 -7.107326E-16  8.292291E-07  4.723338E-09  1.234275E-15 -4.051721E-18  4.723338E-09  0.000000E+00  0.000000E+00  0.000000E+00  0.000000E+00  0.000000E+00  0.000000E+00  0.000000E+00  0.000000E+00  1.027639E+00  2.127480E-07 -7.074578E-10  1.027639E+00                                                                                                                                                                                                                                                                                                                                                                                                                                                                                              
  1.975000E+03  1.250000E+02 -5.225000E+03  8.292290E-07  1.619365E-14 -7.680117E-16  8.292290E-07  4.723338E-09  9.231622E-17 -4.378256E-18  4.723338E-09  0.000000E+00  0.000000E+00  0.000000E+00  0.000000E+00  0.000000E+00  0.000000E+00  0.000000E+00  0.000000E+00  1.027639E+00  1.590149E-08 -7.556669E-10  1.027639E+00                                                                                                                                                                                                                                                                                                                                                                                                                                                                                              
  1.250000E+02  1.250000E+02 -4.975000E+03  9.001502E-07 -2.757558E-15  1.213025E-16  9.001502E-07  5.080889E-09 -1.556232E-17  6.845727E-19  5.080889E-09  0.000000E+00  0.000000E+00  0.000000E+00  0.000000E+00  0.000000E+00  0.000000E+00  0.000000E+00  0.000000E+00  1.064546E+00 -2.634049E-09  1.079607E-10  1.064546E+00                                                                                                                                                                                                                                                                                                                                                                                                                                                                                              
  3.750000E+02  1.250000E+02 -4.975000E+03  9.001502E-07 -2.080151E-14  9.317953E-16  9.001502E-07  5.080889E-09 -1.173936E-16  5.258600E-18  5.080889E-09  0.000000E+00  0.000000E+00  0.000000E+00  0.000000E+00  0.000000E+00  0.000000E+00  0.000000E+00  0.000000E+00  1.064546E+00 -1.949209E-08  9.070727E-10  1.064546E+00                                                                                                                                                                                                                                                                                                                                                                                                                                                                                              
  6.250000E+02  1.250000E+02 -4.975000E+03  9.001504E-07 -1.799579E-13 -1.801325E-15  9.001504E-07  5.080890E-09 -1.015595E-15 -1.016581E-17  5.080890E-09  0.000000E+00  0.000000E+00  0.000000E+00  0.000000E+00  0.000000E+00  0.000000E+00  0.000000E+00  0.000000E+00  1.064546E+00 -1.687887E-07 -1.753751E-09  1.064546E+00                                                                                                                                                                                                                                                                                                                                                                                                                                                                                              
  8.750000E+02  1.250000E+02 -4.975000E+03  9.001525E-07 -7.784919E-13 -1.014242E-15  9.001525E-07  5.080902E-09 -4.393431E-15 -5.723891E-18  5.080902E-09  0.000000E+00  0.000000E+00  0.000000E+00  0.000000E+00  0.000000E+00  0.000000E+00  0.000000E+00  0.000000E+00  1.064548E+00 -7.307377E-07 -1.001765E-09  1.064548E+00                                                                                                                                                                                                                                                                                                                                                                                                                                                                                              
  1.050000E+03  1.250000E+02 -4.975000E+03  9.001611E-07 -2.493388E-15  6.548973E-16  9.001611E-07  5.080951E-09 -1.407147E-17  3.695923E-18  5.080951E-09  0.000000E+00  0.000000E+00  0.000000E+00  0.000000E+00  0.000000E+00  0.000000E+00  0.000000E+00  0.000000E+00  1.064557E+00 -2.431594E-09  6.497807E-10  1.064557E+00                                                                                                                                                                                                                                                                                                                                                                                                                                                                                              
  1.225000E+03  1.250000E+02 -4.975000E+03  9.001525E-07  7.732962E-13  1.035798E-15  9.001525E-07  5.080902E-09  4.364109E-15  5.845540E-18  5.080902E-09  0.000000E+00  0.000000E+00  0.000000E+00  0.000000E+00  0.000000E+00  0.000000E+00  0.000000E+00  0.000000E+00  1.064548E+00  7.256892E-07  1.007129E-09  1.064548E+00                                                                                                                                                                                                                                                                                                                                                                                                                                                                                              
  1.475000E+03  1.250000E+02 -4.975000E+03  9.001504E-07  1.819454E-13  2.691883E-15  9.001504E-07  5.080890E-09  1.026812E-15  1.519168E-17  5.080890E-09  0.000000E+00  0.000000E+00  0.000000E+00  0.000000E+00  0.000000E+00  0.000000E+00  0.000000E+00  0.000000E+00  1.064546E+00  1.707388E-07  2.604170E-09  1.064546E+00                                                                                                                                                                                                                                                                                                                                                                                                                                                                                              
  1.725000E+03  1.250000E+02 -4.975000E+03  9.001502E-07  2.570498E-14  1.912196E-15  9.001502E-07  5.080889E-09  1.450664E-16  1.079151E-17  5.080889E-09  0.000000E+00  0.000000E+00  0.000000E+00  0.000000E+00  0.000000E+00  0.000000E+00  0.000000E+00  0.000000E+00  1.064546E+00  2.424275E-08  1.851808E-09  1.064546E+00                                                                                                                                                                                                                                                                                                                                                                                                                                                                                              
  1.975000E+03  1.250000E+02 -4.975000E+03  9.001502E-07  2.971182E-15  1.171711E-15  9.001502E-07  5.080889E-09  1.676791E-17  6.612567E-18  5.080889E-09  0.000000E+00  0.000000E+00  0.000000E+00  0.000000E+00  0.000000E+00  0.000000E+00  0.000000E+00  0.000000E+00  1.064546E+00  2.817679E-09  1.143461E-09  1.064546E+00                                                                                                                                                                                                                                                                                                                                                                                                                                                                                              
  1.250000E+02  1.250000E+02 -4.725000E+03  9.415205E-07 -5.487504E-16  5.217294E-16  9.415205E-07  5.264962E-09 -3.066999E-18  2.915977E-18  5.264962E-09  0.000000E+00  0.000000E+00  0.000000E+00  0.000000E+00  0.000000E+00  0.000000E+00  0.000000E+00  0.000000E+00  1.061012E+00 -4.973789E-10  4.706318E-10  1.061012E+00                                                                                                                                                                                                                                                                                                                                                                                                                                                                                              
  3.750000E+02  1.250000E+02 -4.725000E+03  9.415205E-07 -1.311778E-15  8.812675E-16  9.415205E-07  5.264962E-09 -7.331603E-18  4.925456E-18  5.264962E-09  0.000000E+00  0.000000E+00  0.000000E+00  0.000000E+00  0.000000E+00  0.000000E+00  0.000000E+00  0.000000E+00  1.061012E+00 -1.164135E-09  7.956021E-10  1.061012E+00                                                                                                                                                                                                                                                                                                                                                                                                                                                                                              
  6.250000E+02  1.250000E+02 -4.725000E+03  9.415205E-07 -1.035963E-14  5.251397E-16  9.415205E-07  5.264962E-09 -5.790058E-17  2.935037E-18  5.264962E-09  0.000000E+00  0.000000E+00  0.000000E+00  0.000000E+00  0.000000E+00  0.000000E+00  0.000000E+00  0.000000E+00  1.061012E+00 -9.257807E-09  4.800602E-10  1.061012E+00                                                                                                                                                                                                                                                                                                                                                                                                                                                                                              
  8.750000E+02  1.250000E+02 -4.725000E+03  9.415207E-07 -3.602709E-14  1.917934E-16  9.415207E-07  5.264963E-09 -2.013576E-16  1.071945E-18  5.264963E-09  0.000000E+00  0.000000E+00  0.000000E+00  0.000000E+00  0.000000E+00  0.000000E+00  0.000000E+00  0.000000E+00  1.061012E+00 -3.219196E-08  1.781460E-10  1.061012E+00                                                                                                                                                                                                                                                                                                                                                                                                                                                                                              
  1.050000E+03  1.250000E+02 -4.725000E+03  9.415211E-07 -5.142780E-16  9.638120E-17  9.415211E-07  5.264966E-09 -2.874330E-18  5.386803E-19  5.264966E-09  0.000000E+00  0.000000E+00  0.000000E+00  0.000000E+00  0.000000E+00  0.000000E+00  0.000000E+00  0.000000E+00  1.061012E+00 -4.646223E-10  7.445616E-11  1.061012E+00                                                                                                                                                                                                                                                                                                                                                                                                                                                                                              
  1.225000E+03  1.250000E+02 -4.725000E+03  9.415207E-07  3.521346E-14  2.599050E-16  9.415207E-07  5.264963E-09  1.968101E-16  1.452624E-18  5.264963E-09  0.000000E+00  0.000000E+00  0.000000E+00  0.000000E+00  0.000000E+00  0.000000E+00  0.000000E+00  0.000000E+00  1.061012E+00  3.144560E-08  2.352007E-10  1.061012E+00                                                                                                                                                                                                                                                                                                                                                                                                                                                                                              
  1.475000E+03  1.250000E+02 -4.725000E+03  9.415205E-07  1.141402E-14  6.188467E-16  9.415205E-07  5.264962E-09  6.379362E-17  3.458771E-18  5.264962E-09  0.000000E+00  0.000000E+00  0.000000E+00  0.000000E+00  0.000000E+00  0.000000E+00  0.000000E+00  0.000000E+00  1.061012E+00  1.022273E-08  5.659391E-10  1.061012E+00                                                                                                                                                                                                                                                                                                                                                                                                                                                                                              
  1.725000E+03  1.250000E+02 -4.725000E+03  9.415205E-07  2.079165E-15  6.406778E-17  9.415205E-07  5.264962E-09  1.162058E-17  3.580787E-19  5.264962E-09  0.000000E+00  0.000000E+00  0.000000E+00  0.000000E+00  0.000000E+00  0.000000E+00  0.000000E+00  0.000000E+00  1.061012E+00  1.865141E-09  4.599625E-11  1.061012E+00                                                                                                                                                                                                                                                                                                                                                                                                                                                                                              