Title="TOUGHREACT V3.30-OMP flowvector.tec: Liq & Gas Fluxes (kg/s/m^2), Pore Velocities (m/s), & Heat Fluxes (J/s/m2)"                                                                                                                                                                                                                                                                                                                                                                                                                                                                                                                                                                                                                                                                                                         
Variables= "X(m)"     "Y(m)"      "Z(m)"     "FluxLiq"   "FluxLiq_X"   "FluxLiq_Y"   "FluxLiq_Z"   "PorVelLiq"  "PorVelLiqX"  "PorVelLiqY"  "PorVelLiqZ"     "FluxGas"   "FluxGas_X"   "FluxGas_Y"   "FluxGas_Z"   "PorVelGas"  "PorVelGasX"  "PorVelGasY"  "PorVelGasZ"    "HeatFlux"  "HeatFlux_X"  "HeatFlux_Y"  "HeatFlux_Z"                                                                                                                                                                                                                                                                                                                                                                                                                                                                                                
Zone T= "1.00000000E+10 sec" I=     9 J=    10 K=    23 F=Point
  1.250000E+02  1.250000E+02 -5.425000E+03  1.420304E-08 -1.175410E-11 -5.555525E-15  1.420303E-08  8.273538E-11 -6.870912E-14 -3.247508E-17  8.273535E-11  0.000000E+00  0.000000E+00  0.000000E+00  0.000000E+00  0.000000E+00  0.000000E+00  0.000000E+00  0.000000E+00  9.752492E-02 -1.497039E-05  3.949997E-09  9.752492E-02                                                                                                                                                                                                                                                                                                                                                                                                                                                                                              
  3.750000E+02  1.250000E+02 -5.425000E+03  1.420261E-08 -3.207298E-11  3.934509E-15  1.420258E-08  8.273294E-11 -1.874844E-13  2.299936E-17  8.273273E-11  0.000000E+00  0.000000E+00  0.000000E+00  0.000000E+00  0.000000E+00  0.000000E+00  0.000000E+00  0.000000E+00  9.752729E-02 -7.567315E-05  6.386489E-09  9.752726E-02                                                                                                                                                                                                                                                                                                                                                                                                                                                                                              
  6.250000E+02  1.250000E+02 -5.425000E+03  1.420087E-08 -2.571651E-11  6.380583E-15  1.420084E-08  8.272300E-11 -1.503283E-13  3.729819E-17  8.272287E-11  0.000000E+00  0.000000E+00  0.000000E+00  0.000000E+00  0.000000E+00  0.000000E+00  0.000000E+00  0.000000E+00  9.756447E-02 -4.582158E-04  9.656335E-09  9.756339E-02                                                                                                                                                                                                                                                                                                                                                                                                                                                                                              
  8.750000E+02  1.250000E+02 -5.425000E+03  1.422950E-08  5.876826E-11  9.808496E-15  1.422938E-08  8.289217E-11  3.435956E-13  5.733907E-17  8.289145E-11  0.000000E+00  0.000000E+00  0.000000E+00  0.000000E+00  0.000000E+00  0.000000E+00  0.000000E+00  0.000000E+00  9.803032E-02 -2.989096E-03  7.838632E-09  9.798474E-02                                                                                                                                                                                                                                                                                                                                                                                                                                                                                              
  1.050000E+03  1.250000E+02 -5.425000E+03  1.451010E-08  1.344018E-14  2.192968E-15  1.451010E-08  8.453715E-11  7.857849E-17  1.282271E-17  8.453715E-11  0.000000E+00  0.000000E+00  0.000000E+00  0.000000E+00  0.000000E+00  0.000000E+00  0.000000E+00  0.000000E+00  1.003620E-01  9.286500E-09  3.151338E-10  1.003620E-01                                                                                                                                                                                                                                                                                                                                                                                                                                                                                              
  1.225000E+03  1.250000E+02 -5.425000E+03  1.422950E-08 -5.874881E-11 -1.016083E-15  1.422938E-08  8.289215E-11 -3.434819E-13 -5.939879E-18  8.289144E-11  0.000000E+00  0.000000E+00  0.000000E+00  0.000000E+00  0.000000E+00  0.000000E+00  0.000000E+00  0.000000E+00  9.803032E-02  2.989124E-03 -1.436724E-10  9.798474E-02                                                                                                                                                                                                                                                                                                                                                                                                                                                                                              
  1.475000E+03  1.250000E+02 -5.425000E+03  1.420085E-08  2.572729E-11  3.003825E-15  1.420083E-08  8.272294E-11  1.503913E-13  1.755909E-17  8.272280E-11  0.000000E+00  0.000000E+00  0.000000E+00  0.000000E+00  0.000000E+00  0.000000E+00  0.000000E+00  0.000000E+00  9.756445E-02  4.582330E-04 -2.424043E-09  9.756337E-02                                                                                                                                                                                                                                                                                                                                                                                                                                                                                              
  1.725000E+03  1.250000E+02 -5.425000E+03  1.420260E-08  3.206937E-11 -3.058400E-15  1.420256E-08  8.273286E-11  1.874633E-13 -1.787803E-17  8.273265E-11  0.000000E+00  0.000000E+00  0.000000E+00  0.000000E+00  0.000000E+00  0.000000E+00  0.000000E+00  0.000000E+00  9.752728E-02  7.566774E-05 -2.202040E-09  9.752725E-02                                                                                                                                                                                                                                                                                                                                                                                                                                                                                              
  1.975000E+03  1.250000E+02 -5.425000E+03  1.420304E-08  1.174572E-11  2.356213E-15  1.420303E-08  8.273540E-11  6.866014E-14  1.377335E-17  8.273537E-11  0.000000E+00  0.000000E+00  0.000000E+00  0.000000E+00  0.000000E+00  0.000000E+00  0.000000E+00  0.000000E+00  9.752491E-02  1.496644E-05  2.239736E-09  9.752491E-02                                                                                                                                                                                                                                                                                                                                                                                                                                                                                              
  1.250000E+02  1.250000E+02 -5.225000E+03  5.417408E-08 -1.248212E-11 -3.340431E-15  5.417408E-08  3.133733E-10 -7.238777E-14 -1.937222E-17  3.133733E-10  0.000000E+00  0.000000E+00  0.000000E+00  0.000000E+00  0.000000E+00  0.000000E+00  0.000000E+00  0.000000E+00  2.333986E-01 -1.310317E-05 -3.603126E-09  2.333986E-01                                                                                                                                                                                                                                                                                                                                                                                                                                                                                              
  3.750000E+02  1.250000E+02 -5.225000E+03  5.417766E-08 -4.108077E-11  2.033532E-16  5.417765E-08  3.133940E-10 -2.382405E-13  1.179310E-18  3.133939E-10  0.000000E+00  0.000000E+00  0.000000E+00  0.000000E+00  0.000000E+00  0.000000E+00  0.000000E+00  0.000000E+00  2.334056E-01 -5.119929E-05  4.459716E-09  2.334056E-01                                                                                                                                                                                                                                                                                                                                                                                                                                                                                              
  6.250000E+02  1.250000E+02 -5.225000E+03  5.418796E-08 -7.990196E-11  4.705998E-16  5.418790E-08  3.134537E-10 -4.633786E-13  2.729160E-18  3.134534E-10  0.000000E+00  0.000000E+00  0.000000E+00  0.000000E+00  0.000000E+00  0.000000E+00  0.000000E+00  0.000000E+00  2.334624E-01 -1.682257E-04  2.445157E-09  2.334624E-01                                                                                                                                                                                                                                                                                                                                                                                                                                                                                              
  8.750000E+02  1.250000E+02 -5.225000E+03  5.425603E-08 -1.006092E-10  2.969031E-15  5.425593E-08  3.138515E-10 -5.834727E-13  1.721853E-17  3.138510E-10  0.000000E+00  0.000000E+00  0.000000E+00  0.000000E+00  0.000000E+00  0.000000E+00  0.000000E+00  0.000000E+00  2.339954E-01 -4.545121E-04  3.198067E-09  2.339950E-01                                                                                                                                                                                                                                                                                                                                                                                                                                                                                              
  1.050000E+03  1.250000E+02 -5.225000E+03  5.460027E-08  9.191972E-15  1.309502E-15  5.460027E-08  3.158665E-10  5.330833E-17  7.594472E-18  3.158665E-10  0.000000E+00  0.000000E+00  0.000000E+00  0.000000E+00  0.000000E+00  0.000000E+00  0.000000E+00  0.000000E+00  2.366165E-01  8.798888E-09  3.044506E-09  2.366165E-01                                                                                                                                                                                                                                                                                                                                                                                                                                                                                              
  1.225000E+03  1.250000E+02 -5.225000E+03  5.425602E-08  1.006196E-10 -4.336233E-15  5.425593E-08  3.138515E-10  5.835331E-13 -2.514746E-17  3.138510E-10  0.000000E+00  0.000000E+00  0.000000E+00  0.000000E+00  0.000000E+00  0.000000E+00  0.000000E+00  0.000000E+00  2.339954E-01  4.545228E-04 -3.553793E-09  2.339950E-01                                                                                                                                                                                                                                                                                                                                                                                                                                                                                              
  1.475000E+03  1.250000E+02 -5.225000E+03  5.418794E-08  7.990569E-11  9.743589E-16  5.418789E-08  3.134536E-10  4.634002E-13  5.650623E-18  3.134533E-10  0.000000E+00  0.000000E+00  0.000000E+00  0.000000E+00  0.000000E+00  0.000000E+00  0.000000E+00  0.000000E+00  2.334624E-01  1.682321E-04  6.554214E-10  2.334623E-01                                                                                                                                                                                                                                                                                                                                                                                                                                                                                              
  1.725000E+03  1.250000E+02 -5.225000E+03  5.417765E-08  4.108824E-11  4.916518E-15  5.417763E-08  3.133939E-10  2.382838E-13  2.851245E-17  3.133938E-10  0.000000E+00  0.000000E+00  0.000000E+00  0.000000E+00  0.000000E+00  0.000000E+00  0.000000E+00  0.000000E+00  2.334056E-01  5.120354E-05  5.300839E-09  2.334056E-01                                                                                                                                                                                                                                                                                                                                                                                                                                                                                              
  1.975000E+03  1.250000E+02 -5.225000E+03  5.417409E-08  1.248709E-11  3.073186E-15  5.417408E-08  3.133734E-10  7.241656E-14  1.782238E-17  3.133734E-10  0.000000E+00  0.000000E+00  0.000000E+00  0.000000E+00  0.000000E+00  0.000000E+00  0.000000E+00  0.000000E+00  2.333986E-01  1.310292E-05  3.036422E-09  2.333986E-01                                                                                                                                                                                                                                                                                                                                                                                                                                                                                              
  1.250000E+02  1.250000E+02 -4.975000E+03  1.066239E-07 -8.431586E-12 -4.556914E-15  1.066239E-07  6.110059E-10 -4.835648E-14 -2.613462E-17  6.110059E-10  0.000000E+00  0.000000E+00  0.000000E+00  0.000000E+00  0.000000E+00  0.000000E+00  0.000000E+00  0.000000E+00  2.970589E-01 -8.064433E-06 -2.060074E-09  2.970589E-01                                                                                                                                                                                                                                                                                                                                                                                                                                                                                              
  3.750000E+02  1.250000E+02 -4.975000E+03  1.066335E-07 -2.670781E-11 -2.769088E-15  1.066335E-07  6.110608E-10 -1.531735E-13 -1.588116E-17  6.110608E-10  0.000000E+00  0.000000E+00  0.000000E+00  0.000000E+00  0.000000E+00  0.000000E+00  0.000000E+00  0.000000E+00  2.970690E-01 -2.652258E-05  5.199706E-10  2.970690E-01                                                                                                                                                                                                                                                                                                                                                                                                                                                                                              
  6.250000E+02  1.250000E+02 -4.975000E+03  1.066582E-07 -4.601708E-11  1.777230E-15  1.066582E-07  6.112027E-10 -2.639153E-13  1.019270E-17  6.112027E-10  0.000000E+00  0.000000E+00  0.000000E+00  0.000000E+00  0.000000E+00  0.000000E+00  0.000000E+00  0.000000E+00  2.971026E-01 -5.311643E-05  2.893242E-09  2.971026E-01                                                                                                                                                                                                                                                                                                                                                                                                                                                                                              
  8.750000E+02  1.250000E+02 -4.975000E+03  1.067195E-07 -4.182683E-11  6.669091E-15  1.067195E-07  6.115565E-10 -2.398837E-13  3.824833E-17  6.115564E-10  0.000000E+00  0.000000E+00  0.000000E+00  0.000000E+00  0.000000E+00  0.000000E+00  0.000000E+00  0.000000E+00  2.972423E-01 -6.871348E-05  2.100161E-09  2.972423E-01                                                                                                                                                                                                                                                                                                                                                                                                                                                                                              
  1.050000E+03  1.250000E+02 -4.975000E+03  1.067941E-07  5.326931E-15  2.577816E-15  1.067941E-07  6.119894E-10  3.055086E-17  1.478422E-17  6.119894E-10  0.000000E+00  0.000000E+00  0.000000E+00  0.000000E+00  0.000000E+00  0.000000E+00  0.000000E+00  0.000000E+00  2.975109E-01  1.666036E-09  2.442546E-09  2.975109E-01                                                                                                                                                                                                                                                                                                                                                                                                                                                                                              
  1.225000E+03  1.250000E+02 -4.975000E+03  1.067195E-07  4.183191E-11 -1.503813E-15  1.067195E-07  6.115565E-10  2.399129E-13 -8.624614E-18  6.115565E-10  0.000000E+00  0.000000E+00  0.000000E+00  0.000000E+00  0.000000E+00  0.000000E+00  0.000000E+00  0.000000E+00  2.972423E-01  6.871778E-05  2.258743E-09  2.972422E-01                                                                                                                                                                                                                                                                                                                                                                                                                                                                                              
  1.475000E+03  1.250000E+02 -4.975000E+03  1.066582E-07  4.602031E-11  9.419728E-16  1.066582E-07  6.112027E-10  2.639338E-13  5.402363E-18  6.112026E-10  0.000000E+00  0.000000E+00  0.000000E+00  0.000000E+00  0.000000E+00  0.000000E+00  0.000000E+00  0.000000E+00  2.971026E-01  5.312059E-05  1.218618E-09  2.971026E-01                                                                                                                                                                                                                                                                                                                                                                                                                                                                                              
  1.725000E+03  1.250000E+02 -4.975000E+03  1.066335E-07  2.672001E-11  1.894927E-15  1.066335E-07  6.110607E-10  1.532435E-13  1.086770E-17  6.110607E-10  0.000000E+00  0.000000E+00  0.000000E+00  0.000000E+00  0.000000E+00  0.000000E+00  0.000000E+00  0.000000E+00  2.970690E-01  2.652840E-05  5.201682E-10  2.970690E-01                                                                                                                                                                                                                                                                                                                                                                                                                                                                                              
  1.975000E+03  1.250000E+02 -4.975000E+03  1.066239E-07  8.440315E-12 -1.281006E-16  1.066239E-07  6.110059E-10  4.840654E-14 -7.346772E-19  6.110059E-10  0.000000E+00  0.000000E+00  0.000000E+00  0.000000E+00  0.000000E+00  0.000000E+00  0.000000E+00  0.000000E+00  2.970589E-01  8.068742E-06  1.916075E-10  2.970589E-01                                                                                                                                                                                                                                                                                                                                                                                                                                                                                              
  1.250000E+02  1.250000E+02 -4.725000E+03  1.600424E-07 -2.845981E-12 -1.339346E-14  1.600424E-07  9.084243E-10 -1.614622E-14 -7.598566E-17  9.084243E-10  0.000000E+00  0.000000E+00  0.000000E+00  0.000000E+00  0.000000E+00  0.000000E+00  0.000000E+00  0.000000E+00  3.429729E-01 -2.575474E-06  2.410532E-08  3.429729E-01                                                                                                                                                                                                                                                                                                                                                                                                                                                                                              
  3.750000E+02  1.250000E+02 -4.725000E+03  1.600535E-07 -8.586650E-12 -1.553659E-15  1.600535E-07  9.084874E-10 -4.871498E-14 -8.814435E-18  9.084874E-10  0.000000E+00  0.000000E+00  0.000000E+00  0.000000E+00  0.000000E+00  0.000000E+00  0.000000E+00  0.000000E+00  3.429844E-01 -8.045738E-06  2.597864E-08  3.429844E-01                                                                                                                                                                                                                                                                                                                                                                                                                                                                                              
  6.250000E+02  1.250000E+02 -4.725000E+03  1.600781E-07 -1.330841E-11 -1.906126E-15  1.600781E-07  9.086272E-10 -7.550315E-14 -1.081410E-17  9.086272E-10  0.000000E+00  0.000000E+00  0.000000E+00  0.000000E+00  0.000000E+00  0.000000E+00  0.000000E+00  0.000000E+00  3.430066E-01 -1.311691E-05  1.552297E-08  3.430066E-01                                                                                                                                                                                                                                                                                                                                                                                                                                                                                              
  8.750000E+02  1.250000E+02 -4.725000E+03  1.601155E-07 -1.010715E-11  1.196532E-14  1.601155E-07  9.088402E-10 -5.734131E-14  6.788332E-17  9.088402E-10  0.000000E+00  0.000000E+00  0.000000E+00  0.000000E+00  0.000000E+00  0.000000E+00  0.000000E+00  0.000000E+00  3.430489E-01 -1.128436E-05 -5.271302E-08  3.430489E-01                                                                                                                                                                                                                                                                                                                                                                                                                                                                                              
  1.050000E+03  1.250000E+02 -4.725000E+03  1.601303E-07  8.182818E-15  2.698784E-15  1.601303E-07  9.089245E-10  4.642395E-17  1.531112E-17  9.089245E-10  0.000000E+00  0.000000E+00  0.000000E+00  0.000000E+00  0.000000E+00  0.000000E+00  0.000000E+00  0.000000E+00  3.430786E-01 -4.930313E-08 -6.597370E-09  3.430786E-01                                                                                                                                                                                                                                                                                                                                                                                                                                                                                              
  1.225000E+03  1.250000E+02 -4.725000E+03  1.601156E-07  1.010635E-11 -6.331020E-15  1.601156E-07  9.088405E-10  5.733676E-14 -3.591804E-17  9.088405E-10  0.000000E+00  0.000000E+00  0.000000E+00  0.000000E+00  0.000000E+00  0.000000E+00  0.000000E+00  0.000000E+00  3.430486E-01  1.128478E-05  3.397963E-08  3.430486E-01                                                                                                                                                                                                                                                                                                                                                                                                                                                                                              
  1.475000E+03  1.250000E+02 -4.725000E+03  1.600781E-07  1.330276E-11 -3.385342E-16  1.600781E-07  9.086269E-10  7.547106E-14 -1.920620E-18  9.086269E-10  0.000000E+00  0.000000E+00  0.000000E+00  0.000000E+00  0.000000E+00  0.000000E+00  0.000000E+00  0.000000E+00  3.430068E-01  1.316505E-05  4.721329E-09  3.430068E-01                                                                                                                                                                                                                                                                                                                                                                                                                                                                                              
  1.725000E+03  1.250000E+02 -4.725000E+03  1.600535E-07  8.599759E-12  6.845846E-15  1.600535E-07  9.084872E-10  4.878936E-14  3.883881E-17  9.084872E-10  0.000000E+00  0.000000E+00  0.000000E+00  0.000000E+00  0.000000E+00  0.000000E+00  0.000000E+00  0.000000E+00  3.429845E-01  8.013310E-06 -2.745362E-08  3.429845E-01                                                                                                                                                                                                                                                                                                                                                                                                                                                                                              