Title="TOUGHREACT V3.30-OMP flowvector.tec: Liq & Gas Fluxes (kg/s/m^2), Pore Velocities (m/s), & Heat Fluxes (J/s/m2)"                                                                                                                                                                                                                                                                                                                                                                                                                                                                                                                                                                                                                                                                                                         
Variables= "X(m)"     "Y(m)"      "Z(m)"     "FluxLiq"   "FluxLiq_X"   "FluxLiq_Y"   "FluxLiq_Z"   "PorVelLiq"  "PorVelLiqX"  "PorVelLiqY"  "PorVelLiqZ"     "FluxGas"   "FluxGas_X"   "FluxGas_Y"   "FluxGas_Z"   "PorVelGas"  "PorVelGasX"  "PorVelGasY"  "PorVelGasZ"    "HeatFlux"  "HeatFlux_X"  "HeatFlux_Y"  "HeatFlux_Z"                                                                                                                                                                                                                                                                                                                                                                                                                                                                                                
Zone T= "1.00000000E+06 sec" I=     9 J=    10 K=    23 F=Point
  1.250000E+02  1.250000E+02 -5.425000E+03  4.865560E-07  4.268981E-15  2.695898E-15  4.865560E-07  2.785327E-09  2.454017E-17  1.549732E-17  2.785327E-09  0.000000E+00  0.000000E+00  0.000000E+00  0.000000E+00  0.000000E+00  0.000000E+00  0.000000E+00  0.000000E+00  5.952221E-01  4.443521E-09  2.822643E-09  5.952221E-01                                                                                                                                                                                                                                                                                                                                                                                                                                                                                              
  3.750000E+02  1.250000E+02 -5.425000E+03  4.865559E-07 -1.807518E-15 -2.529304E-15  4.865559E-07  2.785326E-09 -1.039049E-17 -1.453966E-17  2.785326E-09  0.000000E+00  0.000000E+00  0.000000E+00  0.000000E+00  0.000000E+00  0.000000E+00  0.000000E+00  0.000000E+00  5.952221E-01 -1.832835E-09 -2.627677E-09  5.952221E-01                                                                                                                                                                                                                                                                                                                                                                                                                                                                                              
  6.250000E+02  1.250000E+02 -5.425000E+03  4.865560E-07 -3.249825E-13  5.470085E-16  4.865560E-07  2.785327E-09 -1.868157E-15  3.144469E-18  2.785327E-09  0.000000E+00  0.000000E+00  0.000000E+00  0.000000E+00  0.000000E+00  0.000000E+00  0.000000E+00  0.000000E+00  5.952221E-01 -3.310556E-07  5.755418E-10  5.952221E-01                                                                                                                                                                                                                                                                                                                                                                                                                                                                                              
  8.750000E+02  1.250000E+02 -5.425000E+03  4.865563E-07 -3.400994E-11 -3.424276E-17  4.865563E-07  2.785329E-09 -1.955056E-13 -1.968440E-19  2.785329E-09  0.000000E+00  0.000000E+00  0.000000E+00  0.000000E+00  0.000000E+00  0.000000E+00  0.000000E+00  0.000000E+00  5.952225E-01 -3.551282E-05 -3.574646E-11  5.952225E-01                                                                                                                                                                                                                                                                                                                                                                                                                                                                                              
  1.050000E+03  1.250000E+02 -5.425000E+03  4.865858E-07  1.260342E-15 -1.191350E-15  4.865858E-07  2.785497E-09  7.245055E-18 -6.848458E-18  2.785497E-09  0.000000E+00  0.000000E+00  0.000000E+00  0.000000E+00  0.000000E+00  0.000000E+00  0.000000E+00  0.000000E+00  5.952534E-01  1.319518E-09 -1.253715E-09  5.952534E-01                                                                                                                                                                                                                                                                                                                                                                                                                                                                                              
  1.225000E+03  1.250000E+02 -5.425000E+03  4.865563E-07  3.401091E-11 -2.367723E-15  4.865563E-07  2.785329E-09  1.955111E-13 -1.361082E-17  2.785329E-09  0.000000E+00  0.000000E+00  0.000000E+00  0.000000E+00  0.000000E+00  0.000000E+00  0.000000E+00  0.000000E+00  5.952225E-01  3.551383E-05 -2.474802E-09  5.952225E-01                                                                                                                                                                                                                                                                                                                                                                                                                                                                                              
  1.475000E+03  1.250000E+02 -5.425000E+03  4.865560E-07  3.218025E-13 -3.832934E-16  4.865560E-07  2.785327E-09  1.849876E-15 -2.203356E-18  2.785327E-09  0.000000E+00  0.000000E+00  0.000000E+00  0.000000E+00  0.000000E+00  0.000000E+00  0.000000E+00  0.000000E+00  5.952221E-01  3.277398E-07 -3.914346E-10  5.952221E-01                                                                                                                                                                                                                                                                                                                                                                                                                                                                                              
  1.725000E+03  1.250000E+02 -5.425000E+03  4.865559E-07  2.612274E-15 -1.011057E-15  4.865559E-07  2.785326E-09  1.501661E-17 -5.812046E-18  2.785326E-09  0.000000E+00  0.000000E+00  0.000000E+00  0.000000E+00  0.000000E+00  0.000000E+00  0.000000E+00  0.000000E+00  5.952221E-01  2.666644E-09 -1.050345E-09  5.952221E-01                                                                                                                                                                                                                                                                                                                                                                                                                                                                                              
  1.975000E+03  1.250000E+02 -5.425000E+03  4.865559E-07 -5.751515E-16  1.148904E-15  4.865559E-07  2.785327E-09 -3.306249E-18  6.604456E-18  2.785327E-09  0.000000E+00  0.000000E+00  0.000000E+00  0.000000E+00  0.000000E+00  0.000000E+00  0.000000E+00  0.000000E+00  5.952221E-01 -5.986304E-10  1.203139E-09  5.952221E-01                                                                                                                                                                                                                                                                                                                                                                                                                                                                                              
  1.250000E+02  1.250000E+02 -5.225000E+03  9.543905E-07 -2.516988E-18  2.258380E-17  9.543905E-07  5.438880E-09 -1.434862E-20  1.287437E-19  5.438880E-09  0.000000E+00  0.000000E+00  0.000000E+00  0.000000E+00  0.000000E+00  0.000000E+00  0.000000E+00  0.000000E+00  1.154763E+00 -3.304839E-12  2.245742E-11  1.154763E+00                                                                                                                                                                                                                                                                                                                                                                                                                                                                                              
  3.750000E+02  1.250000E+02 -5.225000E+03  9.543905E-07  6.546142E-17  1.341406E-17  9.543905E-07  5.438880E-09  3.731768E-19  7.646973E-20  5.438880E-09  0.000000E+00  0.000000E+00  0.000000E+00  0.000000E+00  0.000000E+00  0.000000E+00  0.000000E+00  0.000000E+00  1.154763E+00  6.712405E-11  1.416590E-11  1.154763E+00                                                                                                                                                                                                                                                                                                                                                                                                                                                                                              
  6.250000E+02  1.250000E+02 -5.225000E+03  9.543905E-07 -5.713523E-15 -9.183551E-17  9.543905E-07  5.438880E-09 -3.257115E-17 -5.235278E-19  5.438880E-09  0.000000E+00  0.000000E+00  0.000000E+00  0.000000E+00  0.000000E+00  0.000000E+00  0.000000E+00  0.000000E+00  1.154763E+00 -5.615798E-09 -9.265797E-11  1.154763E+00                                                                                                                                                                                                                                                                                                                                                                                                                                                                                              
  8.750000E+02  1.250000E+02 -5.225000E+03  9.543909E-07 -3.817342E-13 -1.787950E-16  9.543909E-07  5.438882E-09 -2.176157E-15 -1.019259E-18  5.438882E-09  0.000000E+00  0.000000E+00  0.000000E+00  0.000000E+00  0.000000E+00  0.000000E+00  0.000000E+00  0.000000E+00  1.154763E+00 -3.752015E-07 -1.802327E-10  1.154763E+00                                                                                                                                                                                                                                                                                                                                                                                                                                                                                              
  1.050000E+03  1.250000E+02 -5.225000E+03  9.544206E-07 -4.987443E-17 -1.536053E-16  9.544206E-07  5.439052E-09 -2.843198E-19 -8.756599E-19  5.439052E-09  0.000000E+00  0.000000E+00  0.000000E+00  0.000000E+00  0.000000E+00  0.000000E+00  0.000000E+00  0.000000E+00  1.154794E+00 -5.088720E-11 -1.543525E-10  1.154794E+00                                                                                                                                                                                                                                                                                                                                                                                                                                                                                              
  1.225000E+03  1.250000E+02 -5.225000E+03  9.543909E-07  3.816905E-13 -1.713032E-16  9.543909E-07  5.438882E-09  2.175908E-15 -9.765505E-19  5.438882E-09  0.000000E+00  0.000000E+00  0.000000E+00  0.000000E+00  0.000000E+00  0.000000E+00  0.000000E+00  0.000000E+00  1.154763E+00  3.751574E-07 -1.727587E-10  1.154763E+00                                                                                                                                                                                                                                                                                                                                                                                                                                                                                              
  1.475000E+03  1.250000E+02 -5.225000E+03  9.543905E-07  5.657843E-15 -1.081120E-16  9.543905E-07  5.438880E-09  3.225374E-17 -6.163156E-19  5.438880E-09  0.000000E+00  0.000000E+00  0.000000E+00  0.000000E+00  0.000000E+00  0.000000E+00  0.000000E+00  0.000000E+00  1.154763E+00  5.560140E-09 -1.087801E-10  1.154763E+00                                                                                                                                                                                                                                                                                                                                                                                                                                                                                              
  1.725000E+03  1.250000E+02 -5.225000E+03  9.543905E-07  4.946128E-17  1.868296E-16  9.543905E-07  5.438880E-09  2.819645E-19  1.065062E-18  5.438880E-09  0.000000E+00  0.000000E+00  0.000000E+00  0.000000E+00  0.000000E+00  0.000000E+00  0.000000E+00  0.000000E+00  1.154763E+00  4.850940E-11  1.889415E-10  1.154763E+00                                                                                                                                                                                                                                                                                                                                                                                                                                                                                              
  1.975000E+03  1.250000E+02 -5.225000E+03  9.543905E-07  1.793378E-16 -3.142583E-16  9.543905E-07  5.438880E-09  1.022354E-18 -1.791496E-18  5.438880E-09  0.000000E+00  0.000000E+00  0.000000E+00  0.000000E+00  0.000000E+00  0.000000E+00  0.000000E+00  0.000000E+00  1.154763E+00  1.813353E-10 -3.167881E-10  1.154763E+00                                                                                                                                                                                                                                                                                                                                                                                                                                                                                              
  1.250000E+02  1.250000E+02 -4.975000E+03  8.977611E-07 -2.675996E-16 -1.394865E-16  8.977611E-07  5.068063E-09 -1.510213E-18 -7.871994E-19  5.068063E-09  0.000000E+00  0.000000E+00  0.000000E+00  0.000000E+00  0.000000E+00  0.000000E+00  0.000000E+00  0.000000E+00  1.062781E+00 -2.576473E-10 -1.344940E-10  1.062781E+00                                                                                                                                                                                                                                                                                                                                                                                                                                                                                              
  3.750000E+02  1.250000E+02 -4.975000E+03  8.977611E-07  2.325959E-16  2.318947E-16  8.977611E-07  5.068063E-09  1.312668E-18  1.308710E-18  5.068063E-09  0.000000E+00  0.000000E+00  0.000000E+00  0.000000E+00  0.000000E+00  0.000000E+00  0.000000E+00  0.000000E+00  1.062781E+00  2.253232E-10  2.233931E-10  1.062781E+00                                                                                                                                                                                                                                                                                                                                                                                                                                                                                              
  6.250000E+02  1.250000E+02 -4.975000E+03  8.977611E-07  2.895201E-17 -4.491404E-16  8.977611E-07  5.068063E-09  1.633923E-19 -2.534749E-18  5.068063E-09  0.000000E+00  0.000000E+00  0.000000E+00  0.000000E+00  0.000000E+00  0.000000E+00  0.000000E+00  0.000000E+00  1.062781E+00  2.896017E-11 -4.339004E-10  1.062781E+00                                                                                                                                                                                                                                                                                                                                                                                                                                                                                              
  8.750000E+02  1.250000E+02 -4.975000E+03  8.977611E-07 -3.011399E-15 -1.158465E-17  8.977611E-07  5.068063E-09 -1.699499E-17 -6.537859E-20  5.068063E-09  0.000000E+00  0.000000E+00  0.000000E+00  0.000000E+00  0.000000E+00  0.000000E+00  0.000000E+00  0.000000E+00  1.062781E+00 -2.838370E-09 -1.103464E-11  1.062781E+00                                                                                                                                                                                                                                                                                                                                                                                                                                                                                              
  1.050000E+03  1.250000E+02 -4.975000E+03  8.977614E-07 -2.099563E-16 -1.482662E-16  8.977614E-07  5.068065E-09 -1.184900E-18 -8.367484E-19  5.068065E-09  0.000000E+00  0.000000E+00  0.000000E+00  0.000000E+00  0.000000E+00  0.000000E+00  0.000000E+00  0.000000E+00  1.062781E+00 -2.031481E-10 -1.427765E-10  1.062781E+00                                                                                                                                                                                                                                                                                                                                                                                                                                                                                              
  1.225000E+03  1.250000E+02 -4.975000E+03  8.977611E-07  2.624945E-15  8.634693E-17  8.977611E-07  5.068063E-09  1.481402E-17  4.873036E-19  5.068063E-09  0.000000E+00  0.000000E+00  0.000000E+00  0.000000E+00  0.000000E+00  0.000000E+00  0.000000E+00  0.000000E+00  1.062781E+00  2.464091E-09  8.377201E-11  1.062781E+00                                                                                                                                                                                                                                                                                                                                                                                                                                                                                              
  1.475000E+03  1.250000E+02 -4.975000E+03  8.977611E-07  4.372868E-16 -6.011337E-17  8.977611E-07  5.068063E-09  2.467852E-18 -3.392531E-19  5.068063E-09  0.000000E+00  0.000000E+00  0.000000E+00  0.000000E+00  0.000000E+00  0.000000E+00  0.000000E+00  0.000000E+00  1.062781E+00  4.205120E-10 -5.876188E-11  1.062781E+00                                                                                                                                                                                                                                                                                                                                                                                                                                                                                              
  1.725000E+03  1.250000E+02 -4.975000E+03  8.977611E-07  7.576129E-17 -1.181327E-16  8.977611E-07  5.068063E-09  4.275630E-19 -6.666881E-19  5.068063E-09  0.000000E+00  0.000000E+00  0.000000E+00  0.000000E+00  0.000000E+00  0.000000E+00  0.000000E+00  0.000000E+00  1.062781E+00  7.341345E-11 -1.139757E-10  1.062781E+00                                                                                                                                                                                                                                                                                                                                                                                                                                                                                              
  1.975000E+03  1.250000E+02 -4.975000E+03  8.977611E-07 -6.677982E-17 -8.164006E-17  8.977611E-07  5.068063E-09 -3.768756E-19 -4.607402E-19  5.068063E-09  0.000000E+00  0.000000E+00  0.000000E+00  0.000000E+00  0.000000E+00  0.000000E+00  0.000000E+00  0.000000E+00  1.062781E+00 -6.421814E-11 -7.890286E-11  1.062781E+00                                                                                                                                                                                                                                                                                                                                                                                                                                                                                              
  1.250000E+02  1.250000E+02 -4.725000E+03  9.720039E-07  2.500823E-17  8.144445E-17  9.720039E-07  5.434132E-09  1.397693E-19  4.551877E-19  5.434132E-09  0.000000E+00  0.000000E+00  0.000000E+00  0.000000E+00  0.000000E+00  0.000000E+00  0.000000E+00  0.000000E+00  1.087690E+00  2.266297E-11  7.345936E-11  1.087690E+00                                                                                                                                                                                                                                                                                                                                                                                                                                                                                              
  3.750000E+02  1.250000E+02 -4.725000E+03  9.720039E-07  2.634063E-17  5.574673E-17  9.720039E-07  5.434132E-09  1.472161E-19  3.115648E-19  5.434132E-09  0.000000E+00  0.000000E+00  0.000000E+00  0.000000E+00  0.000000E+00  0.000000E+00  0.000000E+00  0.000000E+00  1.087690E+00  2.313978E-11  5.056644E-11  1.087690E+00                                                                                                                                                                                                                                                                                                                                                                                                                                                                                              
  6.250000E+02  1.250000E+02 -4.725000E+03  9.720039E-07  1.916614E-17 -4.640126E-18  9.720039E-07  5.434132E-09  1.071183E-19 -2.593336E-20  5.434132E-09  0.000000E+00  0.000000E+00  0.000000E+00  0.000000E+00  0.000000E+00  0.000000E+00  0.000000E+00  0.000000E+00  1.087690E+00  1.812773E-11 -4.214791E-12  1.087690E+00                                                                                                                                                                                                                                                                                                                                                                                                                                                                                              
  8.750000E+02  1.250000E+02 -4.725000E+03  9.720039E-07 -3.100339E-17 -2.886568E-17  9.720039E-07  5.434132E-09 -1.732759E-19 -1.613284E-19  5.434132E-09  0.000000E+00  0.000000E+00  0.000000E+00  0.000000E+00  0.000000E+00  0.000000E+00  0.000000E+00  0.000000E+00  1.087690E+00 -2.681684E-11 -2.733704E-11  1.087690E+00                                                                                                                                                                                                                                                                                                                                                                                                                                                                                              
  1.050000E+03  1.250000E+02 -4.725000E+03  9.720039E-07 -3.141336E-18 -1.842074E-17  9.720039E-07  5.434132E-09 -1.755672E-20 -1.029523E-19  5.434132E-09  0.000000E+00  0.000000E+00  0.000000E+00  0.000000E+00  0.000000E+00  0.000000E+00  0.000000E+00  0.000000E+00  1.087690E+00 -5.007647E-12 -1.695197E-11  1.087690E+00                                                                                                                                                                                                                                                                                                                                                                                                                                                                                              
  1.225000E+03  1.250000E+02 -4.725000E+03  9.720039E-07 -2.853691E-17 -6.731909E-17  9.720039E-07  5.434132E-09 -1.594909E-19 -3.762420E-19  5.434132E-09  0.000000E+00  0.000000E+00  0.000000E+00  0.000000E+00  0.000000E+00  0.000000E+00  0.000000E+00  0.000000E+00  1.087690E+00 -2.631095E-11 -5.978908E-11  1.087690E+00                                                                                                                                                                                                                                                                                                                                                                                                                                                                                              
  1.475000E+03  1.250000E+02 -4.725000E+03  9.720039E-07  4.096914E-17  8.154695E-17  9.720039E-07  5.434132E-09  2.289738E-19  4.557605E-19  5.434132E-09  0.000000E+00  0.000000E+00  0.000000E+00  0.000000E+00  0.000000E+00  0.000000E+00  0.000000E+00  0.000000E+00  1.087690E+00  3.834173E-11  7.252408E-11  1.087690E+00                                                                                                                                                                                                                                                                                                                                                                                                                                                                                              
  1.725000E+03  1.250000E+02 -4.725000E+03  9.720039E-07  1.449900E-16  4.862814E-17  9.720039E-07  5.434132E-09  8.103393E-19  2.717795E-19  5.434132E-09  0.000000E+00  0.000000E+00  0.000000E+00  0.000000E+00  0.000000E+00  0.000000E+00  0.000000E+00  0.000000E+00  1.087690E+00  1.296589E-10  4.316321E-11  1.087690E+00                                                                                                                                                                                                                                                                                                                                                                                                                                                                                              