Title="TOUGHREACT V3.30-OMP flowvector.tec: Liq & Gas Fluxes (kg/s/m^2), Pore Velocities (m/s), & Heat Fluxes (J/s/m2)"                                                                                                                                                                                                                                                                                                                                                                                                                                                                                                                                                                                                                                                                                                         
Variables= "X(m)"     "Y(m)"      "Z(m)"     "FluxLiq"   "FluxLiq_X"   "FluxLiq_Y"   "FluxLiq_Z"   "PorVelLiq"  "PorVelLiqX"  "PorVelLiqY"  "PorVelLiqZ"     "FluxGas"   "FluxGas_X"   "FluxGas_Y"   "FluxGas_Z"   "PorVelGas"  "PorVelGasX"  "PorVelGasY"  "PorVelGasZ"    "HeatFlux"  "HeatFlux_X"  "HeatFlux_Y"  "HeatFlux_Z"                                                                                                                                                                                                                                                                                                                                                                                                                                                                                                
Zone T= "1.00000000E+07 sec" I=     9 J=    10 K=    23 F=Point
  1.250000E+02  1.250000E+02 -5.425000E+03  3.721169E-07 -5.166668E-14  1.345638E-14  3.721169E-07  2.130584E-09 -2.970635E-16  7.736899E-17  2.130584E-09  0.000000E+00  0.000000E+00  0.000000E+00  0.000000E+00  0.000000E+00  0.000000E+00  0.000000E+00  0.000000E+00  4.786386E-01 -5.228796E-08  1.398424E-08  4.786386E-01                                                                                                                                                                                                                                                                                                                                                                                                                                                                                              
  3.750000E+02  1.250000E+02 -5.425000E+03  3.721169E-07 -1.081735E-12  1.127700E-14  3.721169E-07  2.130584E-09 -6.219561E-15  6.483841E-17  2.130584E-09  0.000000E+00  0.000000E+00  0.000000E+00  0.000000E+00  0.000000E+00  0.000000E+00  0.000000E+00  0.000000E+00  4.786386E-01 -1.101592E-06  1.185459E-08  4.786386E-01                                                                                                                                                                                                                                                                                                                                                                                                                                                                                              
  6.250000E+02  1.250000E+02 -5.425000E+03  3.721180E-07 -1.561591E-11  5.848269E-15  3.721180E-07  2.130590E-09 -8.978547E-14  3.362529E-17  2.130590E-09  0.000000E+00  0.000000E+00  0.000000E+00  0.000000E+00  0.000000E+00  0.000000E+00  0.000000E+00  0.000000E+00  4.786397E-01 -1.590334E-05  6.250472E-09  4.786397E-01                                                                                                                                                                                                                                                                                                                                                                                                                                                                                              
  8.750000E+02  1.250000E+02 -5.425000E+03  3.721337E-07 -1.824608E-10  7.485947E-15  3.721336E-07  2.130680E-09 -1.049080E-12  4.304131E-17  2.130680E-09  0.000000E+00  0.000000E+00  0.000000E+00  0.000000E+00  0.000000E+00  0.000000E+00  0.000000E+00  0.000000E+00  4.786556E-01 -1.945782E-04  8.212100E-09  4.786556E-01                                                                                                                                                                                                                                                                                                                                                                                                                                                                                              
  1.050000E+03  1.250000E+02 -5.425000E+03  3.722718E-07  1.486515E-14 -1.614868E-14  3.722718E-07  2.131471E-09  8.546890E-17 -9.284872E-17  2.131471E-09  0.000000E+00  0.000000E+00  0.000000E+00  0.000000E+00  0.000000E+00  0.000000E+00  0.000000E+00  0.000000E+00  4.788050E-01  1.544658E-08 -1.753461E-08  4.788050E-01                                                                                                                                                                                                                                                                                                                                                                                                                                                                                              
  1.225000E+03  1.250000E+02 -5.425000E+03  3.721336E-07  1.824756E-10 -2.860743E-15  3.721336E-07  2.130680E-09  1.049165E-12 -1.644817E-17  2.130679E-09  0.000000E+00  0.000000E+00  0.000000E+00  0.000000E+00  0.000000E+00  0.000000E+00  0.000000E+00  0.000000E+00  4.786556E-01  1.945937E-04 -2.839931E-09  4.786556E-01                                                                                                                                                                                                                                                                                                                                                                                                                                                                                              
  1.475000E+03  1.250000E+02 -5.425000E+03  3.721180E-07  1.562598E-11 -7.590967E-15  3.721180E-07  2.130590E-09  8.984337E-14 -4.364514E-17  2.130590E-09  0.000000E+00  0.000000E+00  0.000000E+00  0.000000E+00  0.000000E+00  0.000000E+00  0.000000E+00  0.000000E+00  4.786397E-01  1.591405E-05 -8.092892E-09  4.786397E-01                                                                                                                                                                                                                                                                                                                                                                                                                                                                                              
  1.725000E+03  1.250000E+02 -5.425000E+03  3.721169E-07  1.079116E-12 -2.616021E-14  3.721169E-07  2.130584E-09  6.204500E-15 -1.504111E-16  2.130584E-09  0.000000E+00  0.000000E+00  0.000000E+00  0.000000E+00  0.000000E+00  0.000000E+00  0.000000E+00  0.000000E+00  4.786386E-01  1.098497E-06 -2.773095E-08  4.786386E-01                                                                                                                                                                                                                                                                                                                                                                                                                                                                                              
  1.975000E+03  1.250000E+02 -5.425000E+03  3.721169E-07  3.889311E-14  1.864663E-14  3.721169E-07  2.130584E-09  2.236204E-16  1.072110E-16  2.130584E-09  0.000000E+00  0.000000E+00  0.000000E+00  0.000000E+00  0.000000E+00  0.000000E+00  0.000000E+00  0.000000E+00  4.786386E-01  3.861008E-08  1.974928E-08  4.786386E-01                                                                                                                                                                                                                                                                                                                                                                                                                                                                                              
  1.250000E+02  1.250000E+02 -5.225000E+03  8.292290E-07 -1.518953E-14  1.119257E-15  8.292290E-07  4.723338E-09 -8.659199E-17  6.380624E-18  4.723338E-09  0.000000E+00  0.000000E+00  0.000000E+00  0.000000E+00  0.000000E+00  0.000000E+00  0.000000E+00  0.000000E+00  1.027639E+00 -1.493199E-08  1.114156E-09  1.027639E+00                                                                                                                                                                                                                                                                                                                                                                                                                                                                                              
  3.750000E+02  1.250000E+02 -5.225000E+03  8.292291E-07 -2.175170E-13  1.104056E-15  8.292291E-07  4.723338E-09 -1.240014E-15  6.293968E-18  4.723338E-09  0.000000E+00  0.000000E+00  0.000000E+00  0.000000E+00  0.000000E+00  0.000000E+00  0.000000E+00  0.000000E+00  1.027639E+00 -2.137874E-07  1.090531E-09  1.027639E+00                                                                                                                                                                                                                                                                                                                                                                                                                                                                                              
  6.250000E+02  1.250000E+02 -5.225000E+03  8.292303E-07 -2.280087E-12  2.109821E-15  8.292303E-07  4.723345E-09 -1.299824E-14  1.202760E-17  4.723345E-09  0.000000E+00  0.000000E+00  0.000000E+00  0.000000E+00  0.000000E+00  0.000000E+00  0.000000E+00  0.000000E+00  1.027641E+00 -2.240816E-06  2.110637E-09  1.027641E+00                                                                                                                                                                                                                                                                                                                                                                                                                                                                                              
  8.750000E+02  1.250000E+02 -5.225000E+03  8.292479E-07 -1.433972E-11  1.899173E-15  8.292479E-07  4.723446E-09 -8.174742E-14  1.082674E-17  4.723446E-09  0.000000E+00  0.000000E+00  0.000000E+00  0.000000E+00  0.000000E+00  0.000000E+00  0.000000E+00  0.000000E+00  1.027658E+00 -1.409609E-05  1.898088E-09  1.027658E+00                                                                                                                                                                                                                                                                                                                                                                                                                                                                                              
  1.050000E+03  1.250000E+02 -5.225000E+03  8.293943E-07  1.769897E-15 -2.090593E-16  8.293943E-07  4.724284E-09  1.008977E-17 -1.191799E-18  4.724284E-09  0.000000E+00  0.000000E+00  0.000000E+00  0.000000E+00  0.000000E+00  0.000000E+00  0.000000E+00  0.000000E+00  1.027816E+00  1.760759E-09 -2.010149E-10  1.027816E+00                                                                                                                                                                                                                                                                                                                                                                                                                                                                                              
  1.225000E+03  1.250000E+02 -5.225000E+03  8.292478E-07  1.434223E-11 -1.904335E-16  8.292478E-07  4.723445E-09  8.176173E-14 -1.085617E-18  4.723445E-09  0.000000E+00  0.000000E+00  0.000000E+00  0.000000E+00  0.000000E+00  0.000000E+00  0.000000E+00  0.000000E+00  1.027658E+00  1.409860E-05 -1.967236E-10  1.027658E+00                                                                                                                                                                                                                                                                                                                                                                                                                                                                                              
  1.475000E+03  1.250000E+02 -5.225000E+03  8.292303E-07  2.280398E-12 -1.138110E-15  8.292303E-07  4.723345E-09  1.300002E-14 -6.488100E-18  4.723345E-09  0.000000E+00  0.000000E+00  0.000000E+00  0.000000E+00  0.000000E+00  0.000000E+00  0.000000E+00  0.000000E+00  1.027641E+00  2.241095E-06 -1.153226E-09  1.027641E+00                                                                                                                                                                                                                                                                                                                                                                                                                                                                                              
  1.725000E+03  1.250000E+02 -5.225000E+03  8.292291E-07  2.160700E-13 -1.283770E-15  8.292291E-07  4.723338E-09  1.231765E-15 -7.318476E-18  4.723338E-09  0.000000E+00  0.000000E+00  0.000000E+00  0.000000E+00  0.000000E+00  0.000000E+00  0.000000E+00  0.000000E+00  1.027639E+00  2.123577E-07 -1.246756E-09  1.027639E+00                                                                                                                                                                                                                                                                                                                                                                                                                                                                                              
  1.975000E+03  1.250000E+02 -5.225000E+03  8.292290E-07  1.417144E-14  1.164257E-15  8.292290E-07  4.723338E-09  8.078808E-17  6.637159E-18  4.723338E-09  0.000000E+00  0.000000E+00  0.000000E+00  0.000000E+00  0.000000E+00  0.000000E+00  0.000000E+00  0.000000E+00  1.027639E+00  1.397655E-08  1.109421E-09  1.027639E+00                                                                                                                                                                                                                                                                                                                                                                                                                                                                                              
  1.250000E+02  1.250000E+02 -4.975000E+03  9.001502E-07 -1.947161E-15  2.019618E-15  9.001502E-07  5.080889E-09 -1.098883E-17  1.139774E-17  5.080889E-09  0.000000E+00  0.000000E+00  0.000000E+00  0.000000E+00  0.000000E+00  0.000000E+00  0.000000E+00  0.000000E+00  1.064546E+00 -1.826078E-09  1.963867E-09  1.064546E+00                                                                                                                                                                                                                                                                                                                                                                                                                                                                                              
  3.750000E+02  1.250000E+02 -4.975000E+03  9.001502E-07 -2.318538E-14  1.299766E-15  9.001502E-07  5.080889E-09 -1.308471E-16  7.335249E-18  5.080889E-09  0.000000E+00  0.000000E+00  0.000000E+00  0.000000E+00  0.000000E+00  0.000000E+00  0.000000E+00  0.000000E+00  1.064546E+00 -2.179631E-08  1.250376E-09  1.064546E+00                                                                                                                                                                                                                                                                                                                                                                                                                                                                                              
  6.250000E+02  1.250000E+02 -4.975000E+03  9.001504E-07 -1.842020E-13  2.264769E-15  9.001504E-07  5.080890E-09 -1.039547E-15  1.278126E-17  5.080890E-09  0.000000E+00  0.000000E+00  0.000000E+00  0.000000E+00  0.000000E+00  0.000000E+00  0.000000E+00  0.000000E+00  1.064546E+00 -1.729283E-07  2.211551E-09  1.064546E+00                                                                                                                                                                                                                                                                                                                                                                                                                                                                                              
  8.750000E+02  1.250000E+02 -4.975000E+03  9.001525E-07 -7.741594E-13 -2.605392E-16  9.001525E-07  5.080902E-09 -4.368980E-15 -1.470357E-18  5.080902E-09  0.000000E+00  0.000000E+00  0.000000E+00  0.000000E+00  0.000000E+00  0.000000E+00  0.000000E+00  0.000000E+00  1.064548E+00 -7.264917E-07 -2.845307E-10  1.064548E+00                                                                                                                                                                                                                                                                                                                                                                                                                                                                                              
  1.050000E+03  1.250000E+02 -4.975000E+03  9.001611E-07  1.432711E-15 -4.414171E-16  9.001611E-07  5.080951E-09  8.085526E-18 -2.491144E-18  5.080951E-09  0.000000E+00  0.000000E+00  0.000000E+00  0.000000E+00  0.000000E+00  0.000000E+00  0.000000E+00  0.000000E+00  1.064557E+00  1.391888E-09 -4.242293E-10  1.064557E+00                                                                                                                                                                                                                                                                                                                                                                                                                                                                                              
  1.225000E+03  1.250000E+02 -4.975000E+03  9.001525E-07  7.756691E-13 -1.690724E-16  9.001525E-07  5.080902E-09  4.377500E-15 -9.541625E-19  5.080902E-09  0.000000E+00  0.000000E+00  0.000000E+00  0.000000E+00  0.000000E+00  0.000000E+00  0.000000E+00  0.000000E+00  1.064548E+00  7.279494E-07 -1.710571E-10  1.064548E+00                                                                                                                                                                                                                                                                                                                                                                                                                                                                                              
  1.475000E+03  1.250000E+02 -4.975000E+03  9.001504E-07  1.828261E-13  7.186705E-16  9.001504E-07  5.080890E-09  1.031782E-15  4.055828E-18  5.080890E-09  0.000000E+00  0.000000E+00  0.000000E+00  0.000000E+00  0.000000E+00  0.000000E+00  0.000000E+00  0.000000E+00  1.064546E+00  1.715881E-07  7.119342E-10  1.064546E+00                                                                                                                                                                                                                                                                                                                                                                                                                                                                                              
  1.725000E+03  1.250000E+02 -4.975000E+03  9.001502E-07  2.174985E-14  6.521308E-16  9.001502E-07  5.080889E-09  1.227456E-16  3.680310E-18  5.080889E-09  0.000000E+00  0.000000E+00  0.000000E+00  0.000000E+00  0.000000E+00  0.000000E+00  0.000000E+00  0.000000E+00  1.064546E+00  2.040271E-08  6.306408E-10  1.064546E+00                                                                                                                                                                                                                                                                                                                                                                                                                                                                                              
  1.975000E+03  1.250000E+02 -4.975000E+03  9.001502E-07  1.964519E-15  1.791960E-15  9.001502E-07  5.080889E-09  1.108679E-17  1.011295E-17  5.080889E-09  0.000000E+00  0.000000E+00  0.000000E+00  0.000000E+00  0.000000E+00  0.000000E+00  0.000000E+00  0.000000E+00  1.064546E+00  1.838572E-09  1.745810E-09  1.064546E+00                                                                                                                                                                                                                                                                                                                                                                                                                                                                                              
  1.250000E+02  1.250000E+02 -4.725000E+03  9.415205E-07 -6.087464E-16  9.990325E-17  9.415205E-07  5.264962E-09 -3.402320E-18  5.583652E-19  5.264962E-09  0.000000E+00  0.000000E+00  0.000000E+00  0.000000E+00  0.000000E+00  0.000000E+00  0.000000E+00  0.000000E+00  1.061012E+00 -5.663736E-10  8.195743E-11  1.061012E+00                                                                                                                                                                                                                                                                                                                                                                                                                                                                                              
  3.750000E+02  1.250000E+02 -4.725000E+03  9.415205E-07 -1.410833E-15  6.790384E-16  9.415205E-07  5.264962E-09 -7.885229E-18  3.795186E-18  5.264962E-09  0.000000E+00  0.000000E+00  0.000000E+00  0.000000E+00  0.000000E+00  0.000000E+00  0.000000E+00  0.000000E+00  1.061012E+00 -1.253866E-09  6.229425E-10  1.061012E+00                                                                                                                                                                                                                                                                                                                                                                                                                                                                                              
  6.250000E+02  1.250000E+02 -4.725000E+03  9.415205E-07 -1.087981E-14 -2.929918E-16  9.415205E-07  5.264962E-09 -6.080791E-17 -1.637548E-18  5.264962E-09  0.000000E+00  0.000000E+00  0.000000E+00  0.000000E+00  0.000000E+00  0.000000E+00  0.000000E+00  0.000000E+00  1.061012E+00 -9.717381E-09 -2.771347E-10  1.061012E+00                                                                                                                                                                                                                                                                                                                                                                                                                                                                                              
  8.750000E+02  1.250000E+02 -4.725000E+03  9.415207E-07 -3.591008E-14  8.898303E-18  9.415207E-07  5.264963E-09 -2.007036E-16  4.973315E-20  5.264963E-09  0.000000E+00  0.000000E+00  0.000000E+00  0.000000E+00  0.000000E+00  0.000000E+00  0.000000E+00  0.000000E+00  1.061012E+00 -3.209920E-08  1.047648E-11  1.061012E+00                                                                                                                                                                                                                                                                                                                                                                                                                                                                                              
  1.050000E+03  1.250000E+02 -4.725000E+03  9.415211E-07  2.439346E-16  4.073653E-16  9.415211E-07  5.264966E-09  1.363365E-18  2.276789E-18  5.264966E-09  0.000000E+00  0.000000E+00  0.000000E+00  0.000000E+00  0.000000E+00  0.000000E+00  0.000000E+00  0.000000E+00  1.061012E+00  2.353619E-10  3.742629E-10  1.061012E+00                                                                                                                                                                                                                                                                                                                                                                                                                                                                                              
  1.225000E+03  1.250000E+02 -4.725000E+03  9.415207E-07  3.572504E-14 -7.747580E-17  9.415207E-07  5.264963E-09  1.996694E-16 -4.330169E-19  5.264963E-09  0.000000E+00  0.000000E+00  0.000000E+00  0.000000E+00  0.000000E+00  0.000000E+00  0.000000E+00  0.000000E+00  1.061012E+00  3.192489E-08 -6.208215E-11  1.061012E+00                                                                                                                                                                                                                                                                                                                                                                                                                                                                                              
  1.475000E+03  1.250000E+02 -4.725000E+03  9.415205E-07  1.145016E-14  4.904875E-16  9.415205E-07  5.264962E-09  6.399562E-17  2.741364E-18  5.264962E-09  0.000000E+00  0.000000E+00  0.000000E+00  0.000000E+00  0.000000E+00  0.000000E+00  0.000000E+00  0.000000E+00  1.061012E+00  1.023148E-08  4.549086E-10  1.061012E+00                                                                                                                                                                                                                                                                                                                                                                                                                                                                                              
  1.725000E+03  1.250000E+02 -4.725000E+03  9.415205E-07  1.544587E-15 -1.204579E-16  9.415205E-07  5.264962E-09  8.632789E-18 -6.732462E-19  5.264962E-09  0.000000E+00  0.000000E+00  0.000000E+00  0.000000E+00  0.000000E+00  0.000000E+00  0.000000E+00  0.000000E+00  1.061012E+00  1.367537E-09 -1.096083E-10  1.061012E+00                                                                                                                                                                                                                                                                                                                                                                                                                                                                                              