Title="TOUGHREACT V3.30-OMP flowvector.tec: Liq & Gas Fluxes (kg/s/m^2), Pore Velocities (m/s), & Heat Fluxes (J/s/m2)"                                                                                                                                                                                                                                                                                                                                                                                                                                                                                                                                                                                                                                                                                                         
Variables= "X(m)"     "Y(m)"      "Z(m)"     "FluxLiq"   "FluxLiq_X"   "FluxLiq_Y"   "FluxLiq_Z"   "PorVelLiq"  "PorVelLiqX"  "PorVelLiqY"  "PorVelLiqZ"     "FluxGas"   "FluxGas_X"   "FluxGas_Y"   "FluxGas_Z"   "PorVelGas"  "PorVelGasX"  "PorVelGasY"  "PorVelGasZ"    "HeatFlux"  "HeatFlux_X"  "HeatFlux_Y"  "HeatFlux_Z"                                                                                                                                                                                                                                                                                                                                                                                                                                                                                                
Zone T= "1.00000000E+10 sec" I=     9 J=    10 K=    23 F=Point
  1.250000E+02  1.250000E+02 -5.425000E+03  2.551107E-09 -1.191536E-11 -7.640631E-15  2.551079E-09  1.473573E-11 -6.906502E-14 -4.428740E-17  1.473557E-11  0.000000E+00  0.000000E+00  0.000000E+00  0.000000E+00  0.000000E+00  0.000000E+00  0.000000E+00  0.000000E+00  8.595823E-02 -1.515529E-05 -1.114481E-08  8.595823E-02                                                                                                                                                                                                                                                                                                                                                                                                                                                                                              
  3.750000E+02  1.250000E+02 -5.425000E+03  2.550950E-09 -3.278525E-11 -1.020504E-14  2.550739E-09  1.473483E-11 -1.900335E-13 -5.915150E-17  1.473360E-11  0.000000E+00  0.000000E+00  0.000000E+00  0.000000E+00  0.000000E+00  0.000000E+00  0.000000E+00  0.000000E+00  8.596073E-02 -7.644339E-05 -1.005405E-08  8.596070E-02                                                                                                                                                                                                                                                                                                                                                                                                                                                                                              
  6.250000E+02  1.250000E+02 -5.425000E+03  2.549515E-09 -2.782534E-11 -8.613865E-15  2.549363E-09  1.472658E-11 -1.612856E-13 -4.992882E-17  1.472570E-11  0.000000E+00  0.000000E+00  0.000000E+00  0.000000E+00  0.000000E+00  0.000000E+00  0.000000E+00  0.000000E+00  8.599825E-02 -4.603973E-04 -9.739608E-09  8.599702E-02                                                                                                                                                                                                                                                                                                                                                                                                                                                                                              
  8.750000E+02  1.250000E+02 -5.425000E+03  2.578365E-09  5.485403E-11  1.339901E-15  2.577782E-09  1.489366E-11  3.180099E-13  7.766882E-18  1.489027E-11  0.000000E+00  0.000000E+00  0.000000E+00  0.000000E+00  0.000000E+00  0.000000E+00  0.000000E+00  0.000000E+00  8.646854E-02 -2.993307E-03  8.197106E-10  8.641671E-02                                                                                                                                                                                                                                                                                                                                                                                                                                                                                              
  1.050000E+03  1.250000E+02 -5.425000E+03  2.850905E-09  4.141912E-15  5.682875E-15  2.850905E-09  1.646994E-11  2.401170E-17  3.294887E-17  1.646994E-11  0.000000E+00  0.000000E+00  0.000000E+00  0.000000E+00  0.000000E+00  0.000000E+00  0.000000E+00  0.000000E+00  8.877857E-02 -4.531451E-09  3.000669E-09  8.877857E-02                                                                                                                                                                                                                                                                                                                                                                                                                                                                                              
  1.225000E+03  1.250000E+02 -5.425000E+03  2.578358E-09 -5.484956E-11  4.219301E-16  2.577775E-09  1.489362E-11 -3.179840E-13  2.445764E-18  1.489023E-11  0.000000E+00  0.000000E+00  0.000000E+00  0.000000E+00  0.000000E+00  0.000000E+00  0.000000E+00  0.000000E+00  8.646854E-02  2.993311E-03 -9.849935E-10  8.641671E-02                                                                                                                                                                                                                                                                                                                                                                                                                                                                                              
  1.475000E+03  1.250000E+02 -5.425000E+03  2.549513E-09  2.781446E-11 -3.513617E-15  2.549361E-09  1.472657E-11  1.612225E-13 -2.036609E-17  1.472569E-11  0.000000E+00  0.000000E+00  0.000000E+00  0.000000E+00  0.000000E+00  0.000000E+00  0.000000E+00  0.000000E+00  8.599825E-02  4.603861E-04 -2.729764E-09  8.599702E-02                                                                                                                                                                                                                                                                                                                                                                                                                                                                                              
  1.725000E+03  1.250000E+02 -5.425000E+03  2.550960E-09  3.277440E-11  8.604749E-16  2.550749E-09  1.473489E-11  1.899706E-13  4.987574E-18  1.473366E-11  0.000000E+00  0.000000E+00  0.000000E+00  0.000000E+00  0.000000E+00  0.000000E+00  0.000000E+00  0.000000E+00  8.596075E-02  7.643794E-05  5.622589E-09  8.596071E-02                                                                                                                                                                                                                                                                                                                                                                                                                                                                                              
  1.975000E+03  1.250000E+02 -5.425000E+03  2.551116E-09  1.191571E-11  1.168060E-14  2.551088E-09  1.473578E-11  6.906706E-14  6.770428E-17  1.473562E-11  0.000000E+00  0.000000E+00  0.000000E+00  0.000000E+00  0.000000E+00  0.000000E+00  0.000000E+00  0.000000E+00  8.595823E-02  1.516916E-05 -3.766999E-10  8.595823E-02                                                                                                                                                                                                                                                                                                                                                                                                                                                                                              
  1.250000E+02  1.250000E+02 -5.225000E+03  1.144084E-08 -1.253768E-11 -4.200524E-15  1.144083E-08  6.559989E-11 -7.209873E-14 -2.415539E-17  6.559985E-11  0.000000E+00  0.000000E+00  0.000000E+00  0.000000E+00  0.000000E+00  0.000000E+00  0.000000E+00  0.000000E+00  1.917742E-01 -1.316684E-05 -4.413655E-09  1.917742E-01                                                                                                                                                                                                                                                                                                                                                                                                                                                                                              
  3.750000E+02  1.250000E+02 -5.225000E+03  1.144467E-08 -4.121513E-11 -2.430772E-15  1.144460E-08  6.562183E-11 -2.370104E-13 -1.397832E-17  6.562141E-11  0.000000E+00  0.000000E+00  0.000000E+00  0.000000E+00  0.000000E+00  0.000000E+00  0.000000E+00  0.000000E+00  1.917814E-01 -5.134794E-05 -3.474100E-09  1.917814E-01                                                                                                                                                                                                                                                                                                                                                                                                                                                                                              
  6.250000E+02  1.250000E+02 -5.225000E+03  1.145559E-08 -7.983699E-11 -2.556766E-15  1.145531E-08  6.568430E-11 -4.591096E-13 -1.470287E-17  6.568269E-11  0.000000E+00  0.000000E+00  0.000000E+00  0.000000E+00  0.000000E+00  0.000000E+00  0.000000E+00  0.000000E+00  1.918384E-01 -1.679288E-04 -2.824742E-09  1.918383E-01                                                                                                                                                                                                                                                                                                                                                                                                                                                                                              
  8.750000E+02  1.250000E+02 -5.225000E+03  1.152293E-08 -9.964051E-11 -3.602374E-15  1.152250E-08  6.607181E-11 -5.729970E-13 -2.071590E-17  6.606933E-11  0.000000E+00  0.000000E+00  0.000000E+00  0.000000E+00  0.000000E+00  0.000000E+00  0.000000E+00  0.000000E+00  1.923679E-01 -4.522914E-04 -3.870569E-09  1.923674E-01                                                                                                                                                                                                                                                                                                                                                                                                                                                                                              
  1.050000E+03  1.250000E+02 -5.225000E+03  1.185642E-08 -4.468116E-15 -2.406156E-15  1.185642E-08  6.799751E-11 -2.569477E-17 -1.383722E-17  6.799751E-11  0.000000E+00  0.000000E+00  0.000000E+00  0.000000E+00  0.000000E+00  0.000000E+00  0.000000E+00  0.000000E+00  1.949677E-01 -2.621793E-09 -3.282272E-09  1.949677E-01                                                                                                                                                                                                                                                                                                                                                                                                                                                                                              
  1.225000E+03  1.250000E+02 -5.225000E+03  1.152292E-08  9.964099E-11 -1.030653E-15  1.152249E-08  6.607180E-11  5.729997E-13 -5.926902E-18  6.606931E-11  0.000000E+00  0.000000E+00  0.000000E+00  0.000000E+00  0.000000E+00  0.000000E+00  0.000000E+00  0.000000E+00  1.923679E-01  4.522915E-04 -3.396060E-09  1.923674E-01                                                                                                                                                                                                                                                                                                                                                                                                                                                                                              
  1.475000E+03  1.250000E+02 -5.225000E+03  1.145559E-08  7.983907E-11  1.467225E-15  1.145531E-08  6.568429E-11  4.591216E-13  8.437385E-18  6.568268E-11  0.000000E+00  0.000000E+00  0.000000E+00  0.000000E+00  0.000000E+00  0.000000E+00  0.000000E+00  0.000000E+00  1.918384E-01  1.679280E-04  6.535583E-10  1.918383E-01                                                                                                                                                                                                                                                                                                                                                                                                                                                                                              
  1.725000E+03  1.250000E+02 -5.225000E+03  1.144469E-08  4.121365E-11  3.339535E-15  1.144461E-08  6.562190E-11  2.370019E-13  1.920421E-17  6.562148E-11  0.000000E+00  0.000000E+00  0.000000E+00  0.000000E+00  0.000000E+00  0.000000E+00  0.000000E+00  0.000000E+00  1.917814E-01  5.134719E-05  2.163436E-09  1.917814E-01                                                                                                                                                                                                                                                                                                                                                                                                                                                                                              
  1.975000E+03  1.250000E+02 -5.225000E+03  1.144085E-08  1.253906E-11  4.416370E-15  1.144085E-08  6.559998E-11  7.210670E-14  2.539663E-17  6.559994E-11  0.000000E+00  0.000000E+00  0.000000E+00  0.000000E+00  0.000000E+00  0.000000E+00  0.000000E+00  0.000000E+00  1.917742E-01  1.316960E-05  4.908909E-09  1.917742E-01                                                                                                                                                                                                                                                                                                                                                                                                                                                                                              
  1.250000E+02  1.250000E+02 -4.975000E+03  2.504225E-08 -8.391297E-12  9.429786E-16  2.504225E-08  1.422631E-10 -4.771879E-14  5.362436E-18  1.422631E-10  0.000000E+00  0.000000E+00  0.000000E+00  0.000000E+00  0.000000E+00  0.000000E+00  0.000000E+00  0.000000E+00  2.201780E-01 -8.042943E-06 -1.445393E-09  2.201780E-01                                                                                                                                                                                                                                                                                                                                                                                                                                                                                              
  3.750000E+02  1.250000E+02 -4.975000E+03  2.505197E-08 -2.651834E-11  1.140202E-15  2.505195E-08  1.423184E-10 -1.508019E-13  6.483986E-18  1.423183E-10  0.000000E+00  0.000000E+00  0.000000E+00  0.000000E+00  0.000000E+00  0.000000E+00  0.000000E+00  0.000000E+00  2.201880E-01 -2.637172E-05 -1.894146E-09  2.201880E-01                                                                                                                                                                                                                                                                                                                                                                                                                                                                                              
  6.250000E+02  1.250000E+02 -4.975000E+03  2.507667E-08 -4.540542E-11  8.041355E-16  2.507663E-08  1.424590E-10 -2.582071E-13  4.572878E-18  1.424587E-10  0.000000E+00  0.000000E+00  0.000000E+00  0.000000E+00  0.000000E+00  0.000000E+00  0.000000E+00  0.000000E+00  2.202215E-01 -5.245020E-05 -1.560678E-09  2.202214E-01                                                                                                                                                                                                                                                                                                                                                                                                                                                                                              
  8.750000E+02  1.250000E+02 -4.975000E+03  2.513676E-08 -4.090998E-11  4.345065E-16  2.513673E-08  1.428017E-10 -2.326430E-13  2.470911E-18  1.428015E-10  0.000000E+00  0.000000E+00  0.000000E+00  0.000000E+00  0.000000E+00  0.000000E+00  0.000000E+00  0.000000E+00  2.203585E-01 -6.739066E-05 -2.087959E-09  2.203585E-01                                                                                                                                                                                                                                                                                                                                                                                                                                                                                              
  1.050000E+03  1.250000E+02 -4.975000E+03  2.520795E-08  1.751245E-15 -2.254382E-16  2.520795E-08  1.432091E-10  9.958827E-18 -1.282003E-18  1.432091E-10  0.000000E+00  0.000000E+00  0.000000E+00  0.000000E+00  0.000000E+00  0.000000E+00  0.000000E+00  0.000000E+00  2.206202E-01 -4.513896E-11 -2.284236E-09  2.206202E-01                                                                                                                                                                                                                                                                                                                                                                                                                                                                                              
  1.225000E+03  1.250000E+02 -4.975000E+03  2.513677E-08  4.091215E-11  1.227838E-16  2.513674E-08  1.428018E-10  2.326553E-13  6.982354E-19  1.428016E-10  0.000000E+00  0.000000E+00  0.000000E+00  0.000000E+00  0.000000E+00  0.000000E+00  0.000000E+00  0.000000E+00  2.203585E-01  6.739189E-05 -2.149486E-09  2.203585E-01                                                                                                                                                                                                                                                                                                                                                                                                                                                                                              
  1.475000E+03  1.250000E+02 -4.975000E+03  2.507667E-08  4.540527E-11  1.372057E-15  2.507663E-08  1.424590E-10  2.582062E-13  7.802479E-18  1.424587E-10  0.000000E+00  0.000000E+00  0.000000E+00  0.000000E+00  0.000000E+00  0.000000E+00  0.000000E+00  0.000000E+00  2.202215E-01  5.245344E-05 -1.765099E-09  2.202214E-01                                                                                                                                                                                                                                                                                                                                                                                                                                                                                              
  1.725000E+03  1.250000E+02 -4.975000E+03  2.505196E-08  2.652235E-11  1.954604E-15  2.505195E-08  1.423183E-10  1.508247E-13  1.111525E-17  1.423183E-10  0.000000E+00  0.000000E+00  0.000000E+00  0.000000E+00  0.000000E+00  0.000000E+00  0.000000E+00  0.000000E+00  2.201880E-01  2.636879E-05 -3.726976E-09  2.201880E-01                                                                                                                                                                                                                                                                                                                                                                                                                                                                                              
  1.975000E+03  1.250000E+02 -4.975000E+03  2.504227E-08  8.395885E-12 -8.919695E-16  2.504227E-08  1.422632E-10  4.774488E-14 -5.072363E-18  1.422632E-10  0.000000E+00  0.000000E+00  0.000000E+00  0.000000E+00  0.000000E+00  0.000000E+00  0.000000E+00  0.000000E+00  2.201780E-01  8.038062E-06  3.876588E-09  2.201780E-01                                                                                                                                                                                                                                                                                                                                                                                                                                                                                              
  1.250000E+02  1.250000E+02 -4.725000E+03  3.968299E-08 -2.789850E-12  1.793512E-15  3.968299E-08  2.233075E-10 -1.569232E-14  1.008813E-17  2.233075E-10  0.000000E+00  0.000000E+00  0.000000E+00  0.000000E+00  0.000000E+00  0.000000E+00  0.000000E+00  0.000000E+00  2.347267E-01 -2.661596E-06 -1.260485E-08  2.347267E-01                                                                                                                                                                                                                                                                                                                                                                                                                                                                                              
  3.750000E+02  1.250000E+02 -4.725000E+03  3.969434E-08 -8.476917E-12  1.869755E-15  3.969434E-08  2.233714E-10 -4.768087E-14  1.051697E-17  2.233714E-10  0.000000E+00  0.000000E+00  0.000000E+00  0.000000E+00  0.000000E+00  0.000000E+00  0.000000E+00  0.000000E+00  2.347365E-01 -8.065180E-06 -1.325474E-08  2.347365E-01                                                                                                                                                                                                                                                                                                                                                                                                                                                                                              
  6.250000E+02  1.250000E+02 -4.725000E+03  3.971849E-08 -1.309184E-11  1.696356E-15  3.971849E-08  2.235075E-10 -7.363881E-14  9.541647E-18  2.235074E-10  0.000000E+00  0.000000E+00  0.000000E+00  0.000000E+00  0.000000E+00  0.000000E+00  0.000000E+00  0.000000E+00  2.347596E-01 -1.296272E-05 -1.277843E-08  2.347596E-01                                                                                                                                                                                                                                                                                                                                                                                                                                                                                              
  8.750000E+02  1.250000E+02 -4.725000E+03  3.975506E-08 -9.842956E-12  1.709329E-15  3.975506E-08  2.237137E-10 -5.536455E-14  9.614613E-18  2.237137E-10  0.000000E+00  0.000000E+00  0.000000E+00  0.000000E+00  0.000000E+00  0.000000E+00  0.000000E+00  0.000000E+00  2.348011E-01 -1.104184E-05 -1.267896E-08  2.348011E-01                                                                                                                                                                                                                                                                                                                                                                                                                                                                                              
  1.050000E+03  1.250000E+02 -4.725000E+03  3.976909E-08  1.421854E-15  1.654382E-15  3.976909E-08  2.237929E-10  7.997633E-18  9.305551E-18  2.237929E-10  0.000000E+00  0.000000E+00  0.000000E+00  0.000000E+00  0.000000E+00  0.000000E+00  0.000000E+00  0.000000E+00  2.348290E-01 -7.954853E-09 -1.230038E-08  2.348290E-01                                                                                                                                                                                                                                                                                                                                                                                                                                                                                              
  1.225000E+03  1.250000E+02 -4.725000E+03  3.975507E-08  9.843943E-12  1.475197E-15  3.975507E-08  2.237137E-10  5.537010E-14  8.297674E-18  2.237137E-10  0.000000E+00  0.000000E+00  0.000000E+00  0.000000E+00  0.000000E+00  0.000000E+00  0.000000E+00  0.000000E+00  2.348010E-01  1.103823E-05 -1.197193E-08  2.348010E-01                                                                                                                                                                                                                                                                                                                                                                                                                                                                                              
  1.475000E+03  1.250000E+02 -4.725000E+03  3.971849E-08  1.308933E-11  1.901950E-15  3.971849E-08  2.235074E-10  7.362473E-14  1.069807E-17  2.235074E-10  0.000000E+00  0.000000E+00  0.000000E+00  0.000000E+00  0.000000E+00  0.000000E+00  0.000000E+00  0.000000E+00  2.347596E-01  1.299016E-05 -1.360025E-08  2.347596E-01                                                                                                                                                                                                                                                                                                                                                                                                                                                                                              
  1.725000E+03  1.250000E+02 -4.725000E+03  3.969432E-08  8.483777E-12  3.953632E-15  3.969432E-08  2.233713E-10  4.771945E-14  2.223835E-17  2.233713E-10  0.000000E+00  0.000000E+00  0.000000E+00  0.000000E+00  0.000000E+00  0.000000E+00  0.000000E+00  0.000000E+00  2.347365E-01  8.023395E-06 -3.395561E-08  2.347365E-01                                                                                                                                                                                                                                                                                                                                                                                                                                                                                              