Title="TOUGHREACT V3.30-OMP flowvector.tec: Liq & Gas Fluxes (kg/s/m^2), Pore Velocities (m/s), & Heat Fluxes (J/s/m2)"                                                                                                                                                                                                                                                                                                                                                                                                                                                                                                                                                                                                                                                                                                         
Variables= "X(m)"     "Y(m)"      "Z(m)"     "FluxLiq"   "FluxLiq_X"   "FluxLiq_Y"   "FluxLiq_Z"   "PorVelLiq"  "PorVelLiqX"  "PorVelLiqY"  "PorVelLiqZ"     "FluxGas"   "FluxGas_X"   "FluxGas_Y"   "FluxGas_Z"   "PorVelGas"  "PorVelGasX"  "PorVelGasY"  "PorVelGasZ"    "HeatFlux"  "HeatFlux_X"  "HeatFlux_Y"  "HeatFlux_Z"                                                                                                                                                                                                                                                                                                                                                                                                                                                                                                
Zone T= "1.00000000E+06 sec" I=     9 J=    10 K=    23 F=Point
  1.250000E+02  1.250000E+02 -5.425000E+03  4.865559E-07 -6.373461E-17  3.957646E-16  4.865559E-07  2.785326E-09 -3.663774E-19  2.275046E-18  2.785326E-09  0.000000E+00  0.000000E+00  0.000000E+00  0.000000E+00  0.000000E+00  0.000000E+00  0.000000E+00  0.000000E+00  5.952221E-01 -6.244917E-11  4.035458E-10  5.952221E-01                                                                                                                                                                                                                                                                                                                                                                                                                                                                                              
  3.750000E+02  1.250000E+02 -5.425000E+03  4.865559E-07 -4.898848E-15  1.043790E-15  4.865559E-07  2.785326E-09 -2.816095E-17  6.000211E-18  2.785326E-09  0.000000E+00  0.000000E+00  0.000000E+00  0.000000E+00  0.000000E+00  0.000000E+00  0.000000E+00  0.000000E+00  5.952221E-01 -5.043714E-09  1.081302E-09  5.952221E-01                                                                                                                                                                                                                                                                                                                                                                                                                                                                                              
  6.250000E+02  1.250000E+02 -5.425000E+03  4.865560E-07 -3.243335E-13  4.984425E-17  4.865560E-07  2.785327E-09 -1.864426E-15  2.865289E-19  2.785327E-09  0.000000E+00  0.000000E+00  0.000000E+00  0.000000E+00  0.000000E+00  0.000000E+00  0.000000E+00  0.000000E+00  5.952221E-01 -3.304088E-07  2.911705E-11  5.952221E-01                                                                                                                                                                                                                                                                                                                                                                                                                                                                                              
  8.750000E+02  1.250000E+02 -5.425000E+03  4.865563E-07 -3.400808E-11 -1.730819E-15  4.865563E-07  2.785329E-09 -1.954949E-13 -9.949588E-18  2.785329E-09  0.000000E+00  0.000000E+00  0.000000E+00  0.000000E+00  0.000000E+00  0.000000E+00  0.000000E+00  0.000000E+00  5.952225E-01 -3.551089E-05 -1.812699E-09  5.952225E-01                                                                                                                                                                                                                                                                                                                                                                                                                                                                                              
  1.050000E+03  1.250000E+02 -5.425000E+03  4.865858E-07  2.325974E-15  2.307602E-15  4.865858E-07  2.785497E-09  1.337083E-17  1.326521E-17  2.785497E-09  0.000000E+00  0.000000E+00  0.000000E+00  0.000000E+00  0.000000E+00  0.000000E+00  0.000000E+00  0.000000E+00  5.952534E-01  2.418115E-09  2.391753E-09  5.952534E-01                                                                                                                                                                                                                                                                                                                                                                                                                                                                                              
  1.225000E+03  1.250000E+02 -5.425000E+03  4.865563E-07  3.400713E-11  1.315266E-15  4.865563E-07  2.785329E-09  1.954894E-13  7.560787E-18  2.785329E-09  0.000000E+00  0.000000E+00  0.000000E+00  0.000000E+00  0.000000E+00  0.000000E+00  0.000000E+00  0.000000E+00  5.952225E-01  3.550989E-05  1.370029E-09  5.952225E-01                                                                                                                                                                                                                                                                                                                                                                                                                                                                                              
  1.475000E+03  1.250000E+02 -5.425000E+03  4.865560E-07  3.205791E-13  1.408291E-15  4.865560E-07  2.785327E-09  1.842844E-15  8.095540E-18  2.785327E-09  0.000000E+00  0.000000E+00  0.000000E+00  0.000000E+00  0.000000E+00  0.000000E+00  0.000000E+00  0.000000E+00  5.952221E-01  3.264937E-07  1.470979E-09  5.952221E-01                                                                                                                                                                                                                                                                                                                                                                                                                                                                                              
  1.725000E+03  1.250000E+02 -5.425000E+03  4.865559E-07  2.691127E-15  2.633250E-15  4.865559E-07  2.785327E-09  1.546990E-17  1.513720E-17  2.785327E-09  0.000000E+00  0.000000E+00  0.000000E+00  0.000000E+00  0.000000E+00  0.000000E+00  0.000000E+00  0.000000E+00  5.952221E-01  2.744386E-09  2.738218E-09  5.952221E-01                                                                                                                                                                                                                                                                                                                                                                                                                                                                                              
  1.975000E+03  1.250000E+02 -5.425000E+03  4.865560E-07 -1.670014E-15  2.119669E-15  4.865560E-07  2.785327E-09 -9.600048E-18  1.218488E-17  2.785327E-09  0.000000E+00  0.000000E+00  0.000000E+00  0.000000E+00  0.000000E+00  0.000000E+00  0.000000E+00  0.000000E+00  5.952221E-01 -1.743943E-09  2.219766E-09  5.952221E-01                                                                                                                                                                                                                                                                                                                                                                                                                                                                                              
  1.250000E+02  1.250000E+02 -5.225000E+03  9.543905E-07  2.306153E-16 -5.612389E-17  9.543905E-07  5.438880E-09  1.314672E-18 -3.199462E-19  5.438880E-09  0.000000E+00  0.000000E+00  0.000000E+00  0.000000E+00  0.000000E+00  0.000000E+00  0.000000E+00  0.000000E+00  1.154763E+00  2.322386E-10 -5.668388E-11  1.154763E+00                                                                                                                                                                                                                                                                                                                                                                                                                                                                                              
  3.750000E+02  1.250000E+02 -5.225000E+03  9.543905E-07  2.041919E-16  1.293830E-16  9.543905E-07  5.438880E-09  1.164039E-18  7.375755E-19  5.438880E-09  0.000000E+00  0.000000E+00  0.000000E+00  0.000000E+00  0.000000E+00  0.000000E+00  0.000000E+00  0.000000E+00  1.154763E+00  2.082984E-10  1.302811E-10  1.154763E+00                                                                                                                                                                                                                                                                                                                                                                                                                                                                                              
  6.250000E+02  1.250000E+02 -5.225000E+03  9.543905E-07 -5.753429E-15  1.469526E-16  9.543905E-07  5.438880E-09 -3.279865E-17  8.377346E-19  5.438880E-09  0.000000E+00  0.000000E+00  0.000000E+00  0.000000E+00  0.000000E+00  0.000000E+00  0.000000E+00  0.000000E+00  1.154763E+00 -5.656162E-09  1.483560E-10  1.154763E+00                                                                                                                                                                                                                                                                                                                                                                                                                                                                                              
  8.750000E+02  1.250000E+02 -5.225000E+03  9.543909E-07 -3.821556E-13  1.421654E-16  9.543909E-07  5.438882E-09 -2.178559E-15  8.104440E-19  5.438882E-09  0.000000E+00  0.000000E+00  0.000000E+00  0.000000E+00  0.000000E+00  0.000000E+00  0.000000E+00  0.000000E+00  1.154763E+00 -3.756288E-07  1.438941E-10  1.154763E+00                                                                                                                                                                                                                                                                                                                                                                                                                                                                                              
  1.050000E+03  1.250000E+02 -5.225000E+03  9.544206E-07  1.625819E-16  3.516380E-16  9.544206E-07  5.439052E-09  9.268327E-19  2.004587E-18  5.439052E-09  0.000000E+00  0.000000E+00  0.000000E+00  0.000000E+00  0.000000E+00  0.000000E+00  0.000000E+00  0.000000E+00  1.154794E+00  1.637599E-10  3.548973E-10  1.154794E+00                                                                                                                                                                                                                                                                                                                                                                                                                                                                                              
  1.225000E+03  1.250000E+02 -5.225000E+03  9.543909E-07  3.821380E-13 -2.685182E-16  9.543909E-07  5.438882E-09  2.178459E-15 -1.530745E-18  5.438882E-09  0.000000E+00  0.000000E+00  0.000000E+00  0.000000E+00  0.000000E+00  0.000000E+00  0.000000E+00  0.000000E+00  1.154763E+00  3.756115E-07 -2.715540E-10  1.154763E+00                                                                                                                                                                                                                                                                                                                                                                                                                                                                                              
  1.475000E+03  1.250000E+02 -5.225000E+03  9.543905E-07  5.547244E-15  1.015185E-16  9.543905E-07  5.438880E-09  3.162324E-17  5.787278E-19  5.438880E-09  0.000000E+00  0.000000E+00  0.000000E+00  0.000000E+00  0.000000E+00  0.000000E+00  0.000000E+00  0.000000E+00  1.154763E+00  5.448944E-09  1.022256E-10  1.154763E+00                                                                                                                                                                                                                                                                                                                                                                                                                                                                                              
  1.725000E+03  1.250000E+02 -5.225000E+03  9.543905E-07  1.546714E-16  3.601958E-16  9.543905E-07  5.438880E-09  8.817370E-19  2.053373E-18  5.438880E-09  0.000000E+00  0.000000E+00  0.000000E+00  0.000000E+00  0.000000E+00  0.000000E+00  0.000000E+00  0.000000E+00  1.154763E+00  1.537520E-10  3.622446E-10  1.154763E+00                                                                                                                                                                                                                                                                                                                                                                                                                                                                                              
  1.975000E+03  1.250000E+02 -5.225000E+03  9.543905E-07  1.542568E-16 -1.510785E-16  9.543905E-07  5.438880E-09  8.793737E-19 -8.612551E-19  5.438880E-09  0.000000E+00  0.000000E+00  0.000000E+00  0.000000E+00  0.000000E+00  0.000000E+00  0.000000E+00  0.000000E+00  1.154763E+00  1.559389E-10 -1.526390E-10  1.154763E+00                                                                                                                                                                                                                                                                                                                                                                                                                                                                                              
  1.250000E+02  1.250000E+02 -4.975000E+03  8.977611E-07 -3.049567E-16 -2.310878E-16  8.977611E-07  5.068063E-09 -1.721040E-18 -1.304156E-18  5.068063E-09  0.000000E+00  0.000000E+00  0.000000E+00  0.000000E+00  0.000000E+00  0.000000E+00  0.000000E+00  0.000000E+00  1.062781E+00 -2.942331E-10 -2.234816E-10  1.062781E+00                                                                                                                                                                                                                                                                                                                                                                                                                                                                                              
  3.750000E+02  1.250000E+02 -4.975000E+03  8.977611E-07 -2.405783E-16  1.693510E-17  8.977611E-07  5.068063E-09 -1.357717E-18  9.557417E-20  5.068063E-09  0.000000E+00  0.000000E+00  0.000000E+00  0.000000E+00  0.000000E+00  0.000000E+00  0.000000E+00  0.000000E+00  1.062781E+00 -2.320874E-10  1.653614E-11  1.062781E+00                                                                                                                                                                                                                                                                                                                                                                                                                                                                                              
  6.250000E+02  1.250000E+02 -4.975000E+03  8.977611E-07 -2.424227E-16 -4.711666E-17  8.977611E-07  5.068063E-09 -1.368126E-18 -2.659055E-19  5.068063E-09  0.000000E+00  0.000000E+00  0.000000E+00  0.000000E+00  0.000000E+00  0.000000E+00  0.000000E+00  0.000000E+00  1.062781E+00 -2.334958E-10 -4.541432E-11  1.062781E+00                                                                                                                                                                                                                                                                                                                                                                                                                                                                                              
  8.750000E+02  1.250000E+02 -4.975000E+03  8.977611E-07 -2.380250E-15 -7.286993E-17  8.977611E-07  5.068063E-09 -1.343307E-17 -4.112454E-19  5.068063E-09  0.000000E+00  0.000000E+00  0.000000E+00  0.000000E+00  0.000000E+00  0.000000E+00  0.000000E+00  0.000000E+00  1.062781E+00 -2.227634E-09 -7.070185E-11  1.062781E+00                                                                                                                                                                                                                                                                                                                                                                                                                                                                                              
  1.050000E+03  1.250000E+02 -4.975000E+03  8.977614E-07 -7.204382E-17  1.468733E-17  8.977614E-07  5.068065E-09 -4.065833E-19  8.288878E-20  5.068065E-09  0.000000E+00  0.000000E+00  0.000000E+00  0.000000E+00  0.000000E+00  0.000000E+00  0.000000E+00  0.000000E+00  1.062781E+00 -6.941629E-11  1.491960E-11  1.062781E+00                                                                                                                                                                                                                                                                                                                                                                                                                                                                                              
  1.225000E+03  1.250000E+02 -4.975000E+03  8.977611E-07  2.355092E-15  2.848997E-16  8.977611E-07  5.068063E-09  1.329109E-17  1.607847E-18  5.068063E-09  0.000000E+00  0.000000E+00  0.000000E+00  0.000000E+00  0.000000E+00  0.000000E+00  0.000000E+00  0.000000E+00  1.062781E+00  2.203538E-09  2.759029E-10  1.062781E+00                                                                                                                                                                                                                                                                                                                                                                                                                                                                                              
  1.475000E+03  1.250000E+02 -4.975000E+03  8.977611E-07  3.338319E-16 -2.987417E-17  8.977611E-07  5.068063E-09  1.883998E-18 -1.685965E-19  5.068063E-09  0.000000E+00  0.000000E+00  0.000000E+00  0.000000E+00  0.000000E+00  0.000000E+00  0.000000E+00  0.000000E+00  1.062781E+00  3.216862E-10 -2.926575E-11  1.062781E+00                                                                                                                                                                                                                                                                                                                                                                                                                                                                                              
  1.725000E+03  1.250000E+02 -4.975000E+03  8.977611E-07 -1.480837E-16  8.153440E-17  8.977611E-07  5.068063E-09 -8.357184E-19  4.601438E-19  5.068063E-09  0.000000E+00  0.000000E+00  0.000000E+00  0.000000E+00  0.000000E+00  0.000000E+00  0.000000E+00  0.000000E+00  1.062781E+00 -1.431194E-10  7.854028E-11  1.062781E+00                                                                                                                                                                                                                                                                                                                                                                                                                                                                                              
  1.975000E+03  1.250000E+02 -4.975000E+03  8.977611E-07 -1.282284E-16  6.617465E-17  8.977611E-07  5.068063E-09 -7.236640E-19  3.734603E-19  5.068063E-09  0.000000E+00  0.000000E+00  0.000000E+00  0.000000E+00  0.000000E+00  0.000000E+00  0.000000E+00  0.000000E+00  1.062781E+00 -1.238435E-10  6.326258E-11  1.062781E+00                                                                                                                                                                                                                                                                                                                                                                                                                                                                                              
  1.250000E+02  1.250000E+02 -4.725000E+03  9.720039E-07 -8.988613E-17 -5.897991E-18  9.720039E-07  5.434132E-09 -5.023676E-19 -3.296348E-20  5.434132E-09  0.000000E+00  0.000000E+00  0.000000E+00  0.000000E+00  0.000000E+00  0.000000E+00  0.000000E+00  0.000000E+00  1.087690E+00 -8.060063E-11 -5.159884E-12  1.087690E+00                                                                                                                                                                                                                                                                                                                                                                                                                                                                                              
  3.750000E+02  1.250000E+02 -4.725000E+03  9.720039E-07 -5.706982E-17  7.283506E-17  9.720039E-07  5.434132E-09 -3.189594E-19  4.070704E-19  5.434132E-09  0.000000E+00  0.000000E+00  0.000000E+00  0.000000E+00  0.000000E+00  0.000000E+00  0.000000E+00  0.000000E+00  1.087690E+00 -5.107983E-11  6.503929E-11  1.087690E+00                                                                                                                                                                                                                                                                                                                                                                                                                                                                                              
  6.250000E+02  1.250000E+02 -4.725000E+03  9.720039E-07  1.256002E-16  4.691372E-17  9.720039E-07  5.434132E-09  7.019712E-19  2.621977E-19  5.434132E-09  0.000000E+00  0.000000E+00  0.000000E+00  0.000000E+00  0.000000E+00  0.000000E+00  0.000000E+00  0.000000E+00  1.087690E+00  1.122021E-10  4.187802E-11  1.087690E+00                                                                                                                                                                                                                                                                                                                                                                                                                                                                                              
  8.750000E+02  1.250000E+02 -4.725000E+03  9.720039E-07  6.825218E-17 -2.082466E-17  9.720039E-07  5.434132E-09  3.814569E-19 -1.163877E-19  5.434132E-09  0.000000E+00  0.000000E+00  0.000000E+00  0.000000E+00  0.000000E+00  0.000000E+00  0.000000E+00  0.000000E+00  1.087690E+00  5.994861E-11 -1.891049E-11  1.087690E+00                                                                                                                                                                                                                                                                                                                                                                                                                                                                                              
  1.050000E+03  1.250000E+02 -4.725000E+03  9.720039E-07 -5.117981E-17  2.610769E-17  9.720039E-07  5.434132E-09 -2.860406E-19  1.459142E-19  5.434132E-09  0.000000E+00  0.000000E+00  0.000000E+00  0.000000E+00  0.000000E+00  0.000000E+00  0.000000E+00  0.000000E+00  1.087690E+00 -4.556016E-11  2.530823E-11  1.087690E+00                                                                                                                                                                                                                                                                                                                                                                                                                                                                                              
  1.225000E+03  1.250000E+02 -4.725000E+03  9.720039E-07 -6.144905E-17 -1.393901E-17  9.720039E-07  5.434132E-09 -3.434347E-19 -7.790422E-20  5.434132E-09  0.000000E+00  0.000000E+00  0.000000E+00  0.000000E+00  0.000000E+00  0.000000E+00  0.000000E+00  0.000000E+00  1.087690E+00 -5.362000E-11 -1.252460E-11  1.087690E+00                                                                                                                                                                                                                                                                                                                                                                                                                                                                                              
  1.475000E+03  1.250000E+02 -4.725000E+03  9.720039E-07  6.440271E-17  2.481256E-17  9.720039E-07  5.434132E-09  3.599425E-19  1.386758E-19  5.434132E-09  0.000000E+00  0.000000E+00  0.000000E+00  0.000000E+00  0.000000E+00  0.000000E+00  0.000000E+00  0.000000E+00  1.087690E+00  5.853304E-11  2.193132E-11  1.087690E+00                                                                                                                                                                                                                                                                                                                                                                                                                                                                                              
  1.725000E+03  1.250000E+02 -4.725000E+03  9.720039E-07  4.164932E-18 -3.369216E-17  9.720039E-07  5.434132E-09  2.327753E-20 -1.883032E-19  5.434132E-09  0.000000E+00  0.000000E+00  0.000000E+00  0.000000E+00  0.000000E+00  0.000000E+00  0.000000E+00  0.000000E+00  1.087690E+00  3.303249E-12 -3.114170E-11  1.087690E+00                                                                                                                                                                                                                                                                                                                                                                                                                                                                                              