Title="TOUGHREACT V3.30-OMP flowvector.tec: Liq & Gas Fluxes (kg/s/m^2), Pore Velocities (m/s), & Heat Fluxes (J/s/m2)"                                                                                                                                                                                                                                                                                                                                                                                                                                                                                                                                                                                                                                                                                                         
Variables= "X(m)"     "Y(m)"      "Z(m)"     "FluxLiq"   "FluxLiq_X"   "FluxLiq_Y"   "FluxLiq_Z"   "PorVelLiq"  "PorVelLiqX"  "PorVelLiqY"  "PorVelLiqZ"     "FluxGas"   "FluxGas_X"   "FluxGas_Y"   "FluxGas_Z"   "PorVelGas"  "PorVelGasX"  "PorVelGasY"  "PorVelGasZ"    "HeatFlux"  "HeatFlux_X"  "HeatFlux_Y"  "HeatFlux_Z"                                                                                                                                                                                                                                                                                                                                                                                                                                                                                                
Zone T= "5.18400000E+05 sec" I=     9 J=    10 K=    23 F=Point
  1.250000E+02  1.250000E+02 -5.425000E+03  4.946790E-07  1.862408E-16 -1.228285E-16  4.946790E-07  2.831782E-09  1.070583E-18 -7.060654E-19  2.831782E-09  0.000000E+00  0.000000E+00  0.000000E+00  0.000000E+00  0.000000E+00  0.000000E+00  0.000000E+00  0.000000E+00  6.034972E-01  1.892472E-10 -1.256698E-10  6.034972E-01                                                                                                                                                                                                                                                                                                                                                                                                                                                                                              
  3.750000E+02  1.250000E+02 -5.425000E+03  4.946790E-07  6.016112E-16  3.018021E-16  4.946790E-07  2.831782E-09  3.458292E-18  1.734874E-18  2.831782E-09  0.000000E+00  0.000000E+00  0.000000E+00  0.000000E+00  0.000000E+00  0.000000E+00  0.000000E+00  0.000000E+00  6.034972E-01  6.258421E-10  3.169419E-10  6.034972E-01                                                                                                                                                                                                                                                                                                                                                                                                                                                                                              
  6.250000E+02  1.250000E+02 -5.425000E+03  4.946790E-07 -9.555537E-14  6.922202E-16  4.946790E-07  2.831782E-09 -5.492889E-16  3.979147E-18  2.831782E-09  0.000000E+00  0.000000E+00  0.000000E+00  0.000000E+00  0.000000E+00  0.000000E+00  0.000000E+00  0.000000E+00  6.034972E-01 -9.735784E-08  7.239902E-10  6.034972E-01                                                                                                                                                                                                                                                                                                                                                                                                                                                                                              
  8.750000E+02  1.250000E+02 -5.425000E+03  4.946791E-07 -1.836005E-11 -5.313343E-16  4.946791E-07  2.831783E-09 -1.055406E-13 -3.054313E-18  2.831783E-09  0.000000E+00  0.000000E+00  0.000000E+00  0.000000E+00  0.000000E+00  0.000000E+00  0.000000E+00  0.000000E+00  6.034973E-01 -1.915260E-05 -5.562807E-10  6.034973E-01                                                                                                                                                                                                                                                                                                                                                                                                                                                                                              
  1.050000E+03  1.250000E+02 -5.425000E+03  4.946952E-07 -3.839246E-18 -8.282647E-16  4.946952E-07  2.831875E-09 -2.206945E-20 -4.761183E-18  2.831875E-09  0.000000E+00  0.000000E+00  0.000000E+00  0.000000E+00  0.000000E+00  0.000000E+00  0.000000E+00  0.000000E+00  6.035141E-01 -3.927625E-12 -8.557379E-10  6.035141E-01                                                                                                                                                                                                                                                                                                                                                                                                                                                                                              
  1.225000E+03  1.250000E+02 -5.425000E+03  4.946791E-07  1.836005E-11 -5.279020E-16  4.946791E-07  2.831783E-09  1.055406E-13 -3.034583E-18  2.831783E-09  0.000000E+00  0.000000E+00  0.000000E+00  0.000000E+00  0.000000E+00  0.000000E+00  0.000000E+00  0.000000E+00  6.034973E-01  1.915260E-05 -5.527556E-10  6.034973E-01                                                                                                                                                                                                                                                                                                                                                                                                                                                                                              
  1.475000E+03  1.250000E+02 -5.425000E+03  4.946790E-07  9.555849E-14  6.922202E-16  4.946790E-07  2.831782E-09  5.493068E-16  3.979147E-18  2.831782E-09  0.000000E+00  0.000000E+00  0.000000E+00  0.000000E+00  0.000000E+00  0.000000E+00  0.000000E+00  0.000000E+00  6.034972E-01  9.736103E-08  7.239902E-10  6.034972E-01                                                                                                                                                                                                                                                                                                                                                                                                                                                                                              
  1.725000E+03  1.250000E+02 -5.425000E+03  4.946790E-07 -4.202320E-16  3.013693E-16  4.946790E-07  2.831782E-09 -2.415655E-18  1.732386E-18  2.831782E-09  0.000000E+00  0.000000E+00  0.000000E+00  0.000000E+00  0.000000E+00  0.000000E+00  0.000000E+00  0.000000E+00  6.034972E-01 -4.415168E-10  3.165011E-10  6.034972E-01                                                                                                                                                                                                                                                                                                                                                                                                                                                                                              
  1.975000E+03  1.250000E+02 -5.425000E+03  4.946790E-07 -5.304485E-18 -3.037246E-16  4.946790E-07  2.831782E-09 -3.049221E-20 -1.745925E-18  2.831782E-09  0.000000E+00  0.000000E+00  0.000000E+00  0.000000E+00  0.000000E+00  0.000000E+00  0.000000E+00  0.000000E+00  6.034972E-01 -5.372958E-12 -3.095033E-10  6.034972E-01                                                                                                                                                                                                                                                                                                                                                                                                                                                                                              
  1.250000E+02  1.250000E+02 -5.225000E+03  9.626484E-07  1.066018E-17  7.244977E-18  9.626484E-07  5.486102E-09  6.077067E-20  4.130155E-20  5.486102E-09  0.000000E+00  0.000000E+00  0.000000E+00  0.000000E+00  0.000000E+00  0.000000E+00  0.000000E+00  0.000000E+00  1.163170E+00  1.048342E-11  7.135295E-12  1.163170E+00                                                                                                                                                                                                                                                                                                                                                                                                                                                                                              
  3.750000E+02  1.250000E+02 -5.225000E+03  9.626484E-07 -3.236550E-17 -1.283170E-18  9.626484E-07  5.486102E-09 -1.845065E-19 -7.314989E-21  5.486102E-09  0.000000E+00  0.000000E+00  0.000000E+00  0.000000E+00  0.000000E+00  0.000000E+00  0.000000E+00  0.000000E+00  1.163170E+00 -3.287970E-11 -1.225463E-12  1.163170E+00                                                                                                                                                                                                                                                                                                                                                                                                                                                                                              
  6.250000E+02  1.250000E+02 -5.225000E+03  9.626484E-07 -1.046524E-15  1.875403E-18  9.626484E-07  5.486102E-09 -5.965936E-18  1.069114E-20  5.486102E-09  0.000000E+00  0.000000E+00  0.000000E+00  0.000000E+00  0.000000E+00  0.000000E+00  0.000000E+00  0.000000E+00  1.163170E+00 -1.031275E-09  1.842724E-12  1.163170E+00                                                                                                                                                                                                                                                                                                                                                                                                                                                                                              
  8.750000E+02  1.250000E+02 -5.225000E+03  9.626485E-07 -1.131386E-13 -4.456549E-17  9.626485E-07  5.486102E-09 -6.449712E-16 -2.540552E-19  5.486102E-09  0.000000E+00  0.000000E+00  0.000000E+00  0.000000E+00  0.000000E+00  0.000000E+00  0.000000E+00  0.000000E+00  1.163170E+00 -1.112020E-07 -4.483044E-11  1.163170E+00                                                                                                                                                                                                                                                                                                                                                                                                                                                                                              
  1.050000E+03  1.250000E+02 -5.225000E+03  9.626646E-07  5.640309E-19  1.136297E-16  9.626646E-07  5.486194E-09  3.215380E-21  6.477704E-19  5.486194E-09  0.000000E+00  0.000000E+00  0.000000E+00  0.000000E+00  0.000000E+00  0.000000E+00  0.000000E+00  0.000000E+00  1.163187E+00  5.548437E-13  1.149374E-10  1.163187E+00                                                                                                                                                                                                                                                                                                                                                                                                                                                                                              
  1.225000E+03  1.250000E+02 -5.225000E+03  9.626485E-07  1.131382E-13 -4.050870E-17  9.626485E-07  5.486102E-09  6.449687E-16 -2.309286E-19  5.486102E-09  0.000000E+00  0.000000E+00  0.000000E+00  0.000000E+00  0.000000E+00  0.000000E+00  0.000000E+00  0.000000E+00  1.163170E+00  1.112016E-07 -4.082198E-11  1.163170E+00                                                                                                                                                                                                                                                                                                                                                                                                                                                                                              
  1.475000E+03  1.250000E+02 -5.225000E+03  9.626484E-07  1.046149E-15  1.865532E-18  9.626484E-07  5.486102E-09  5.963798E-18  1.063487E-20  5.486102E-09  0.000000E+00  0.000000E+00  0.000000E+00  0.000000E+00  0.000000E+00  0.000000E+00  0.000000E+00  0.000000E+00  1.163170E+00  1.030906E-09  1.833028E-12  1.163170E+00                                                                                                                                                                                                                                                                                                                                                                                                                                                                                              
  1.725000E+03  1.250000E+02 -5.225000E+03  9.626484E-07  4.124899E-17 -1.490452E-18  9.626484E-07  5.486102E-09  2.351488E-19 -8.496641E-21  5.486102E-09  0.000000E+00  0.000000E+00  0.000000E+00  0.000000E+00  0.000000E+00  0.000000E+00  0.000000E+00  0.000000E+00  1.163170E+00  4.162389E-11 -1.429354E-12  1.163170E+00                                                                                                                                                                                                                                                                                                                                                                                                                                                                                              
  1.975000E+03  1.250000E+02 -5.225000E+03  9.626484E-07 -2.408412E-18 -8.982192E-19  9.626484E-07  5.486102E-09 -1.372967E-20 -5.120492E-21  5.486102E-09  0.000000E+00  0.000000E+00  0.000000E+00  0.000000E+00  0.000000E+00  0.000000E+00  0.000000E+00  0.000000E+00  1.163170E+00 -2.360031E-12 -8.828638E-13  1.163170E+00                                                                                                                                                                                                                                                                                                                                                                                                                                                                                              
  1.250000E+02  1.250000E+02 -4.975000E+03  8.967850E-07  1.248760E-19  0.000000E+00  8.967850E-07  5.062591E-09  7.047450E-22  0.000000E+00  5.062591E-09  0.000000E+00  0.000000E+00  0.000000E+00  0.000000E+00  0.000000E+00  0.000000E+00  0.000000E+00  0.000000E+00  1.061870E+00  1.171243E-13  0.000000E+00  1.061870E+00                                                                                                                                                                                                                                                                                                                                                                                                                                                                                              
  3.750000E+02  1.250000E+02 -4.975000E+03  8.967850E-07  5.153535E-17 -1.921169E-20  8.967850E-07  5.062591E-09  2.908428E-19 -1.084223E-22  5.062591E-09  0.000000E+00  0.000000E+00  0.000000E+00  0.000000E+00  0.000000E+00  0.000000E+00  0.000000E+00  0.000000E+00  1.061870E+00  4.974175E-11 -1.801912E-14  1.061870E+00                                                                                                                                                                                                                                                                                                                                                                                                                                                                                              
  6.250000E+02  1.250000E+02 -4.975000E+03  8.967850E-07 -1.545676E-16  6.724091E-20  8.967850E-07  5.062591E-09 -8.723116E-19  3.794781E-22  5.062591E-09  0.000000E+00  0.000000E+00  0.000000E+00  0.000000E+00  0.000000E+00  0.000000E+00  0.000000E+00  0.000000E+00  1.061870E+00 -1.488632E-10  6.505645E-14  1.061870E+00                                                                                                                                                                                                                                                                                                                                                                                                                                                                                              
  8.750000E+02  1.250000E+02 -4.975000E+03  8.967850E-07 -4.605879E-16  0.000000E+00  8.967850E-07  5.062591E-09 -2.599355E-18  0.000000E+00  5.062591E-09  0.000000E+00  0.000000E+00  0.000000E+00  0.000000E+00  0.000000E+00  0.000000E+00  0.000000E+00  0.000000E+00  1.061870E+00 -4.327834E-10  0.000000E+00  1.061870E+00                                                                                                                                                                                                                                                                                                                                                                                                                                                                                              
  1.050000E+03  1.250000E+02 -4.975000E+03  8.967851E-07  2.468565E-16 -2.238162E-18  8.967851E-07  5.062592E-09  1.393149E-18 -1.263120E-20  5.062592E-09  0.000000E+00  0.000000E+00  0.000000E+00  0.000000E+00  0.000000E+00  0.000000E+00  0.000000E+00  0.000000E+00  1.061871E+00  2.382111E-10 -2.141860E-12  1.061871E+00                                                                                                                                                                                                                                                                                                                                                                                                                                                                                              
  1.225000E+03  1.250000E+02 -4.975000E+03  8.967850E-07  2.894076E-16 -1.212738E-16  8.967850E-07  5.062591E-09  1.633289E-18 -6.844158E-19  5.062591E-09  0.000000E+00  0.000000E+00  0.000000E+00  0.000000E+00  0.000000E+00  0.000000E+00  0.000000E+00  0.000000E+00  1.061870E+00  2.676101E-10 -1.170134E-10  1.061870E+00                                                                                                                                                                                                                                                                                                                                                                                                                                                                                              
  1.475000E+03  1.250000E+02 -4.975000E+03  8.967850E-07 -1.900036E-17 -7.655858E-18  8.967850E-07  5.062591E-09 -1.072297E-19 -4.320629E-20  5.062591E-09  0.000000E+00  0.000000E+00  0.000000E+00  0.000000E+00  0.000000E+00  0.000000E+00  0.000000E+00  0.000000E+00  1.061870E+00 -1.860564E-11 -7.259633E-12  1.061870E+00                                                                                                                                                                                                                                                                                                                                                                                                                                                                                              
  1.725000E+03  1.250000E+02 -4.975000E+03  8.967850E-07  1.937307E-16 -8.181298E-17  8.967850E-07  5.062591E-09  1.093331E-18 -4.617164E-19  5.062591E-09  0.000000E+00  0.000000E+00  0.000000E+00  0.000000E+00  0.000000E+00  0.000000E+00  0.000000E+00  0.000000E+00  1.061870E+00  1.869219E-10 -7.882684E-11  1.061870E+00                                                                                                                                                                                                                                                                                                                                                                                                                                                                                              
  1.975000E+03  1.250000E+02 -4.975000E+03  8.967850E-07  6.724091E-19  4.130513E-18  8.967850E-07  5.062591E-09  3.794781E-21  2.331080E-20  5.062591E-09  0.000000E+00  0.000000E+00  0.000000E+00  0.000000E+00  0.000000E+00  0.000000E+00  0.000000E+00  0.000000E+00  1.061870E+00  6.309535E-13  3.866722E-12  1.061870E+00                                                                                                                                                                                                                                                                                                                                                                                                                                                                                              
  1.250000E+02  1.250000E+02 -4.725000E+03  9.738659E-07  4.658758E-20 -1.863503E-20  9.738659E-07  5.444449E-09  2.603743E-22 -1.041497E-22  5.444449E-09  0.000000E+00  0.000000E+00  0.000000E+00  0.000000E+00  0.000000E+00  0.000000E+00  0.000000E+00  0.000000E+00  1.089306E+00  4.163517E-14 -1.693828E-14  1.089306E+00                                                                                                                                                                                                                                                                                                                                                                                                                                                                                              
  3.750000E+02  1.250000E+02 -4.725000E+03  9.738659E-07  2.391806E-17 -2.208251E-18  9.738659E-07  5.444449E-09  1.336762E-19 -1.234174E-20  5.444449E-09  0.000000E+00  0.000000E+00  0.000000E+00  0.000000E+00  0.000000E+00  0.000000E+00  0.000000E+00  0.000000E+00  1.089306E+00  2.167620E-11 -2.035751E-12  1.089306E+00                                                                                                                                                                                                                                                                                                                                                                                                                                                                                              
  6.250000E+02  1.250000E+02 -4.725000E+03  9.738659E-07 -5.627780E-17  9.317516E-21  9.738659E-07  5.444449E-09 -3.145321E-19  5.207486E-23  5.444449E-09  0.000000E+00  0.000000E+00  0.000000E+00  0.000000E+00  0.000000E+00  0.000000E+00  0.000000E+00  0.000000E+00  1.089306E+00 -5.058746E-11  8.327034E-15  1.089306E+00                                                                                                                                                                                                                                                                                                                                                                                                                                                                                              
  8.750000E+02  1.250000E+02 -4.725000E+03  9.738659E-07 -4.837654E-17  3.851861E-17  9.738659E-07  5.444449E-09 -2.703727E-19  2.152775E-19  5.444449E-09  0.000000E+00  0.000000E+00  0.000000E+00  0.000000E+00  0.000000E+00  0.000000E+00  0.000000E+00  0.000000E+00  1.089306E+00 -4.332702E-11  3.435916E-11  1.089306E+00                                                                                                                                                                                                                                                                                                                                                                                                                                                                                              
  1.050000E+03  1.250000E+02 -4.725000E+03  9.738659E-07  2.827201E-17  3.363623E-18  9.738659E-07  5.444449E-09  1.580100E-19  1.879902E-20  5.444449E-09  0.000000E+00  0.000000E+00  0.000000E+00  0.000000E+00  0.000000E+00  0.000000E+00  0.000000E+00  0.000000E+00  1.089306E+00  2.496817E-11  3.104682E-12  1.089306E+00                                                                                                                                                                                                                                                                                                                                                                                                                                                                                              
  1.225000E+03  1.250000E+02 -4.725000E+03  9.738659E-07 -2.353338E-17 -1.747966E-17  9.738659E-07  5.444449E-09 -1.315262E-19 -9.769243E-20  5.444449E-09  0.000000E+00  0.000000E+00  0.000000E+00  0.000000E+00  0.000000E+00  0.000000E+00  0.000000E+00  0.000000E+00  1.089306E+00 -2.162134E-11 -1.535037E-11  1.089306E+00                                                                                                                                                                                                                                                                                                                                                                                                                                                                                              
  1.475000E+03  1.250000E+02 -4.725000E+03  9.738659E-07  3.317036E-17  4.534835E-17  9.738659E-07  5.444449E-09  1.853865E-19  2.534483E-19  5.444449E-09  0.000000E+00  0.000000E+00  0.000000E+00  0.000000E+00  0.000000E+00  0.000000E+00  0.000000E+00  0.000000E+00  1.089306E+00  3.076974E-11  4.065585E-11  1.089306E+00                                                                                                                                                                                                                                                                                                                                                                                                                                                                                              
  1.725000E+03  1.250000E+02 -4.725000E+03  9.738659E-07  7.204303E-17 -3.950627E-18  9.738659E-07  5.444449E-09  4.026428E-19 -2.207974E-20  5.444449E-09  0.000000E+00  0.000000E+00  0.000000E+00  0.000000E+00  0.000000E+00  0.000000E+00  0.000000E+00  0.000000E+00  1.089306E+00  6.506333E-11 -3.492009E-12  1.089306E+00                                                                                                                                                                                                                                                                                                                                                                                                                                                                                              