Title="TOUGHREACT V3.30-OMP flowvector.tec: Liq & Gas Fluxes (kg/s/m^2), Pore Velocities (m/s), & Heat Fluxes (J/s/m2)"                                                                                                                                                                                                                                                                                                                                                                                                                                                                                                                                                                                                                                                                                                         
Variables= "X(m)"     "Y(m)"      "Z(m)"     "FluxLiq"   "FluxLiq_X"   "FluxLiq_Y"   "FluxLiq_Z"   "PorVelLiq"  "PorVelLiqX"  "PorVelLiqY"  "PorVelLiqZ"     "FluxGas"   "FluxGas_X"   "FluxGas_Y"   "FluxGas_Z"   "PorVelGas"  "PorVelGasX"  "PorVelGasY"  "PorVelGasZ"    "HeatFlux"  "HeatFlux_X"  "HeatFlux_Y"  "HeatFlux_Z"                                                                                                                                                                                                                                                                                                                                                                                                                                                                                                
Zone T= "1.00000000E+09 sec" I=     9 J=    10 K=    23 F=Point
  1.250000E+02  1.250000E+02 -5.425000E+03  2.166892E-08 -1.761718E-11 -5.175768E-15  2.166891E-08  1.246109E-10 -1.017319E-13 -2.988792E-17  1.246109E-10  0.000000E+00  0.000000E+00  0.000000E+00  0.000000E+00  0.000000E+00  0.000000E+00  0.000000E+00  0.000000E+00  1.192599E-01 -1.791838E-05 -6.767796E-09  1.192599E-01                                                                                                                                                                                                                                                                                                                                                                                                                                                                                              
  3.750000E+02  1.250000E+02 -5.425000E+03  2.167289E-08 -5.925162E-11  1.082435E-15  2.167281E-08  1.246338E-10 -3.421536E-13  6.250617E-18  1.246333E-10  0.000000E+00  0.000000E+00  0.000000E+00  0.000000E+00  0.000000E+00  0.000000E+00  0.000000E+00  0.000000E+00  1.192639E-01 -6.036415E-05  1.079526E-08  1.192639E-01                                                                                                                                                                                                                                                                                                                                                                                                                                                                                              
  6.250000E+02  1.250000E+02 -5.425000E+03  2.168636E-08 -1.282287E-10  9.241714E-15  2.168599E-08  1.247113E-10 -7.404680E-13  5.336707E-17  1.247091E-10  0.000000E+00  0.000000E+00  0.000000E+00  0.000000E+00  0.000000E+00  0.000000E+00  0.000000E+00  0.000000E+00  1.192775E-01 -1.422622E-04  1.581119E-08  1.192774E-01                                                                                                                                                                                                                                                                                                                                                                                                                                                                                              
  8.750000E+02  1.250000E+02 -5.425000E+03  2.173640E-08 -2.422310E-10  2.695647E-14  2.173505E-08  1.249991E-10 -1.398813E-12  1.556626E-16  1.249913E-10  0.000000E+00  0.000000E+00  0.000000E+00  0.000000E+00  0.000000E+00  0.000000E+00  0.000000E+00  0.000000E+00  1.193459E-01 -1.008210E-03  2.751257E-08  1.193417E-01                                                                                                                                                                                                                                                                                                                                                                                                                                                                                              
  1.050000E+03  1.250000E+02 -5.425000E+03  2.193273E-08  4.060998E-14  1.229169E-14  2.193273E-08  1.261321E-10  2.345133E-16  7.098405E-17  1.261321E-10  0.000000E+00  0.000000E+00  0.000000E+00  0.000000E+00  0.000000E+00  0.000000E+00  0.000000E+00  0.000000E+00  1.201916E-01  4.190514E-08  1.434995E-08  1.201916E-01                                                                                                                                                                                                                                                                                                                                                                                                                                                                                              
  1.225000E+03  1.250000E+02 -5.425000E+03  2.173637E-08  2.422512E-10 -5.516247E-15  2.173502E-08  1.249989E-10  1.398929E-12 -3.185408E-17  1.249911E-10  0.000000E+00  0.000000E+00  0.000000E+00  0.000000E+00  0.000000E+00  0.000000E+00  0.000000E+00  0.000000E+00  1.193459E-01  1.008239E-03 -2.142279E-09  1.193417E-01                                                                                                                                                                                                                                                                                                                                                                                                                                                                                              
  1.475000E+03  1.250000E+02 -5.425000E+03  2.168636E-08  1.282099E-10  1.483743E-15  2.168598E-08  1.247112E-10  7.403592E-13  8.568003E-18  1.247090E-10  0.000000E+00  0.000000E+00  0.000000E+00  0.000000E+00  0.000000E+00  0.000000E+00  0.000000E+00  0.000000E+00  1.192775E-01  1.422548E-04 -5.227508E-09  1.192774E-01                                                                                                                                                                                                                                                                                                                                                                                                                                                                                              
  1.725000E+03  1.250000E+02 -5.425000E+03  2.167289E-08  5.923219E-11 -3.164877E-15  2.167281E-08  1.246338E-10  3.420414E-13 -1.827586E-17  1.246333E-10  0.000000E+00  0.000000E+00  0.000000E+00  0.000000E+00  0.000000E+00  0.000000E+00  0.000000E+00  0.000000E+00  1.192639E-01  6.033555E-05 -9.060181E-09  1.192639E-01                                                                                                                                                                                                                                                                                                                                                                                                                                                                                              
  1.975000E+03  1.250000E+02 -5.425000E+03  2.166894E-08  1.759620E-11 -1.522279E-16  2.166893E-08  1.246111E-10  1.016108E-13 -8.790531E-19  1.246110E-10  0.000000E+00  0.000000E+00  0.000000E+00  0.000000E+00  0.000000E+00  0.000000E+00  0.000000E+00  0.000000E+00  1.192599E-01  1.788388E-05  3.734968E-09  1.192599E-01                                                                                                                                                                                                                                                                                                                                                                                                                                                                                              
  1.250000E+02  1.250000E+02 -5.225000E+03  8.371704E-08 -1.421743E-11 -7.852935E-17  8.371704E-08  4.778070E-10 -8.134787E-14 -4.493213E-19  4.778069E-10  0.000000E+00  0.000000E+00  0.000000E+00  0.000000E+00  0.000000E+00  0.000000E+00  0.000000E+00  0.000000E+00  2.797992E-01 -1.396959E-05 -1.555717E-09  2.797992E-01                                                                                                                                                                                                                                                                                                                                                                                                                                                                                              
  3.750000E+02  1.250000E+02 -5.225000E+03  8.372695E-08 -4.473859E-11  3.405511E-15  8.372694E-08  4.778636E-10 -2.559808E-13  1.948531E-17  4.778635E-10  0.000000E+00  0.000000E+00  0.000000E+00  0.000000E+00  0.000000E+00  0.000000E+00  0.000000E+00  0.000000E+00  2.798090E-01 -4.396139E-05  5.863487E-09  2.798090E-01                                                                                                                                                                                                                                                                                                                                                                                                                                                                                              
  6.250000E+02  1.250000E+02 -5.225000E+03  8.375486E-08 -7.881661E-11  1.121185E-15  8.375482E-08  4.780232E-10 -4.509648E-13  6.415080E-18  4.780230E-10  0.000000E+00  0.000000E+00  0.000000E+00  0.000000E+00  0.000000E+00  0.000000E+00  0.000000E+00  0.000000E+00  2.798370E-01 -7.778022E-05  2.133348E-09  2.798370E-01                                                                                                                                                                                                                                                                                                                                                                                                                                                                                              
  8.750000E+02  1.250000E+02 -5.225000E+03  8.383297E-08 -9.209391E-11  3.856642E-15  8.383292E-08  4.784707E-10 -5.269336E-13  2.206654E-17  4.784704E-10  0.000000E+00  0.000000E+00  0.000000E+00  0.000000E+00  0.000000E+00  0.000000E+00  0.000000E+00  0.000000E+00  2.799301E-01 -1.049347E-04  4.732520E-09  2.799301E-01                                                                                                                                                                                                                                                                                                                                                                                                                                                                                              
  1.050000E+03  1.250000E+02 -5.225000E+03  8.405817E-08  9.383574E-15  2.635843E-15  8.405817E-08  4.797683E-10  5.368999E-17  1.508152E-17  4.797683E-10  0.000000E+00  0.000000E+00  0.000000E+00  0.000000E+00  0.000000E+00  0.000000E+00  0.000000E+00  0.000000E+00  2.808171E-01  9.858452E-09  1.458327E-09  2.808171E-01                                                                                                                                                                                                                                                                                                                                                                                                                                                                                              
  1.225000E+03  1.250000E+02 -5.225000E+03  8.383294E-08  9.210233E-11  1.352851E-16  8.383289E-08  4.784705E-10  5.269818E-13  7.740603E-19  4.784702E-10  0.000000E+00  0.000000E+00  0.000000E+00  0.000000E+00  0.000000E+00  0.000000E+00  0.000000E+00  0.000000E+00  2.799301E-01  1.049450E-04 -3.155112E-10  2.799301E-01                                                                                                                                                                                                                                                                                                                                                                                                                                                                                              
  1.475000E+03  1.250000E+02 -5.225000E+03  8.375485E-08  7.881782E-11 -2.595648E-15  8.375482E-08  4.780232E-10  4.509717E-13 -1.485151E-17  4.780229E-10  0.000000E+00  0.000000E+00  0.000000E+00  0.000000E+00  0.000000E+00  0.000000E+00  0.000000E+00  0.000000E+00  2.798370E-01  7.778376E-05 -2.532510E-09  2.798370E-01                                                                                                                                                                                                                                                                                                                                                                                                                                                                                              
  1.725000E+03  1.250000E+02 -5.225000E+03  8.372695E-08  4.473809E-11 -4.644682E-16  8.372694E-08  4.778636E-10  2.559779E-13 -2.657547E-18  4.778635E-10  0.000000E+00  0.000000E+00  0.000000E+00  0.000000E+00  0.000000E+00  0.000000E+00  0.000000E+00  0.000000E+00  2.798090E-01  4.395758E-05 -1.865188E-09  2.798090E-01                                                                                                                                                                                                                                                                                                                                                                                                                                                                                              
  1.975000E+03  1.250000E+02 -5.225000E+03  8.371706E-08  1.421476E-11 -2.460738E-15  8.371706E-08  4.778071E-10  8.133255E-14 -1.407960E-17  4.778071E-10  0.000000E+00  0.000000E+00  0.000000E+00  0.000000E+00  0.000000E+00  0.000000E+00  0.000000E+00  0.000000E+00  2.797992E-01  1.396272E-05 -2.905276E-09  2.797992E-01                                                                                                                                                                                                                                                                                                                                                                                                                                                                                              
  1.250000E+02  1.250000E+02 -4.975000E+03  1.624850E-07 -8.003232E-12  1.285087E-15  1.624850E-07  9.186207E-10 -4.527940E-14  7.270560E-18  9.186207E-10  0.000000E+00  0.000000E+00  0.000000E+00  0.000000E+00  0.000000E+00  0.000000E+00  0.000000E+00  0.000000E+00  3.544631E-01 -7.514563E-06  1.311344E-09  3.544631E-01                                                                                                                                                                                                                                                                                                                                                                                                                                                                                              
  3.750000E+02  1.250000E+02 -4.975000E+03  1.624965E-07 -2.343690E-11  4.832678E-16  1.624965E-07  9.186856E-10 -1.325975E-13  2.734155E-18  9.186856E-10  0.000000E+00  0.000000E+00  0.000000E+00  0.000000E+00  0.000000E+00  0.000000E+00  0.000000E+00  0.000000E+00  3.544742E-01 -2.200890E-05  7.011557E-10  3.544742E-01                                                                                                                                                                                                                                                                                                                                                                                                                                                                                              
  6.250000E+02  1.250000E+02 -4.975000E+03  1.625220E-07 -3.434241E-11 -2.616311E-17  1.625220E-07  9.188300E-10 -1.942969E-13 -1.480214E-19  9.188300E-10  0.000000E+00  0.000000E+00  0.000000E+00  0.000000E+00  0.000000E+00  0.000000E+00  0.000000E+00  0.000000E+00  3.544987E-01 -3.227076E-05 -3.820255E-10  3.544987E-01                                                                                                                                                                                                                                                                                                                                                                                                                                                                                              
  8.750000E+02  1.250000E+02 -4.975000E+03  1.625649E-07 -2.607481E-11 -8.748494E-16  1.625649E-07  9.190734E-10 -1.475218E-13 -4.949581E-18  9.190734E-10  0.000000E+00  0.000000E+00  0.000000E+00  0.000000E+00  0.000000E+00  0.000000E+00  0.000000E+00  0.000000E+00  3.545406E-01 -2.468770E-05 -5.109252E-10  3.545406E-01                                                                                                                                                                                                                                                                                                                                                                                                                                                                                              
  1.050000E+03  1.250000E+02 -4.975000E+03  1.625966E-07  4.138039E-15 -7.666310E-17  1.625966E-07  9.192540E-10  2.341153E-17 -4.337321E-19  9.192540E-10  0.000000E+00  0.000000E+00  0.000000E+00  0.000000E+00  0.000000E+00  0.000000E+00  0.000000E+00  0.000000E+00  3.545818E-01  4.138580E-09 -3.050148E-10  3.545818E-01                                                                                                                                                                                                                                                                                                                                                                                                                                                                                              
  1.225000E+03  1.250000E+02 -4.975000E+03  1.625649E-07  2.608106E-11 -1.443777E-16  1.625649E-07  9.190734E-10  1.475572E-13 -8.168367E-19  9.190734E-10  0.000000E+00  0.000000E+00  0.000000E+00  0.000000E+00  0.000000E+00  0.000000E+00  0.000000E+00  0.000000E+00  3.545406E-01  2.469394E-05 -2.761365E-10  3.545406E-01                                                                                                                                                                                                                                                                                                                                                                                                                                                                                              
  1.475000E+03  1.250000E+02 -4.975000E+03  1.625220E-07  3.434670E-11 -1.288394E-15  1.625220E-07  9.188300E-10  1.943212E-13 -7.289266E-18  9.188299E-10  0.000000E+00  0.000000E+00  0.000000E+00  0.000000E+00  0.000000E+00  0.000000E+00  0.000000E+00  0.000000E+00  3.544987E-01  3.227507E-05 -1.747836E-09  3.544987E-01                                                                                                                                                                                                                                                                                                                                                                                                                                                                                              
  1.725000E+03  1.250000E+02 -4.975000E+03  1.624965E-07  2.344090E-11 -1.724747E-15  1.624965E-07  9.186856E-10  1.326201E-13 -9.757994E-18  9.186856E-10  0.000000E+00  0.000000E+00  0.000000E+00  0.000000E+00  0.000000E+00  0.000000E+00  0.000000E+00  0.000000E+00  3.544741E-01  2.201249E-05 -1.699770E-09  3.544741E-01                                                                                                                                                                                                                                                                                                                                                                                                                                                                                              
  1.975000E+03  1.250000E+02 -4.975000E+03  1.624850E-07  8.005050E-12 -1.825093E-15  1.624850E-07  9.186208E-10  4.528968E-14 -1.032572E-17  9.186207E-10  0.000000E+00  0.000000E+00  0.000000E+00  0.000000E+00  0.000000E+00  0.000000E+00  0.000000E+00  0.000000E+00  3.544631E-01  7.515953E-06 -2.178198E-09  3.544631E-01                                                                                                                                                                                                                                                                                                                                                                                                                                                                                              
  1.250000E+02  1.250000E+02 -4.725000E+03  2.359611E-07 -2.495988E-12  2.660161E-15  2.359611E-07  1.321472E-09 -1.397105E-14  1.488999E-17  1.321472E-09  0.000000E+00  0.000000E+00  0.000000E+00  0.000000E+00  0.000000E+00  0.000000E+00  0.000000E+00  0.000000E+00  4.145499E-01 -2.245332E-06 -5.697441E-09  4.145499E-01                                                                                                                                                                                                                                                                                                                                                                                                                                                                                              
  3.750000E+02  1.250000E+02 -4.725000E+03  2.359716E-07 -7.045316E-12 -3.157406E-16  2.359716E-07  1.321530E-09 -3.943545E-14 -1.767327E-18  1.321530E-09  0.000000E+00  0.000000E+00  0.000000E+00  0.000000E+00  0.000000E+00  0.000000E+00  0.000000E+00  0.000000E+00  4.145593E-01 -6.326201E-06  1.951819E-09  4.145593E-01                                                                                                                                                                                                                                                                                                                                                                                                                                                                                              
  6.250000E+02  1.250000E+02 -4.725000E+03  2.359915E-07 -9.468141E-12 -5.896379E-16  2.359915E-07  1.321642E-09 -5.299698E-14 -3.300439E-18  1.321642E-09  0.000000E+00  0.000000E+00  0.000000E+00  0.000000E+00  0.000000E+00  0.000000E+00  0.000000E+00  0.000000E+00  4.145776E-01 -8.493750E-06  2.155548E-09  4.145776E-01                                                                                                                                                                                                                                                                                                                                                                                                                                                                                              
  8.750000E+02  1.250000E+02 -4.725000E+03  2.360153E-07 -6.146841E-12 -8.442214E-16  2.360153E-07  1.321775E-09 -3.440633E-14 -4.725445E-18  1.321775E-09  0.000000E+00  0.000000E+00  0.000000E+00  0.000000E+00  0.000000E+00  0.000000E+00  0.000000E+00  0.000000E+00  4.145995E-01 -5.519945E-06  2.215348E-09  4.145995E-01                                                                                                                                                                                                                                                                                                                                                                                                                                                                                              
  1.050000E+03  1.250000E+02 -4.725000E+03  2.360212E-07  3.953366E-15 -1.401999E-15  2.360212E-07  1.321808E-09  2.212857E-17 -7.847550E-18  1.321808E-09  0.000000E+00  0.000000E+00  0.000000E+00  0.000000E+00  0.000000E+00  0.000000E+00  0.000000E+00  0.000000E+00  4.146050E-01  2.675293E-10  1.657214E-09  4.146050E-01                                                                                                                                                                                                                                                                                                                                                                                                                                                                                              
  1.225000E+03  1.250000E+02 -4.725000E+03  2.360153E-07  6.150611E-12 -1.849841E-15  2.360153E-07  1.321775E-09  3.442744E-14 -1.035430E-17  1.321775E-09  0.000000E+00  0.000000E+00  0.000000E+00  0.000000E+00  0.000000E+00  0.000000E+00  0.000000E+00  0.000000E+00  4.145994E-01  5.521926E-06  8.326364E-10  4.145994E-01                                                                                                                                                                                                                                                                                                                                                                                                                                                                                              
  1.475000E+03  1.250000E+02 -4.725000E+03  2.359915E-07  9.468866E-12 -1.848881E-15  2.359915E-07  1.321642E-09  5.300104E-14 -1.034893E-17  1.321642E-09  0.000000E+00  0.000000E+00  0.000000E+00  0.000000E+00  0.000000E+00  0.000000E+00  0.000000E+00  0.000000E+00  4.145775E-01  8.497200E-06  1.233307E-09  4.145775E-01                                                                                                                                                                                                                                                                                                                                                                                                                                                                                              
  1.725000E+03  1.250000E+02 -4.725000E+03  2.359716E-07  7.051986E-12 -1.542555E-15  2.359716E-07  1.321530E-09  3.947279E-14 -8.634299E-18  1.321530E-09  0.000000E+00  0.000000E+00  0.000000E+00  0.000000E+00  0.000000E+00  0.000000E+00  0.000000E+00  0.000000E+00  4.145593E-01  6.321361E-06  1.278945E-09  4.145593E-01                                                                                                                                                                                                                                                                                                                                                                                                                                                                                              