Title="TOUGHREACT V3.30-OMP flowvector.tec: Liq & Gas Fluxes (kg/s/m^2), Pore Velocities (m/s), & Heat Fluxes (J/s/m2)"                                                                                                                                                                                                                                                                                                                                                                                                                                                                                                                                                                                                                                                                                                         
Variables= "X(m)"     "Y(m)"      "Z(m)"     "FluxLiq"   "FluxLiq_X"   "FluxLiq_Y"   "FluxLiq_Z"   "PorVelLiq"  "PorVelLiqX"  "PorVelLiqY"  "PorVelLiqZ"     "FluxGas"   "FluxGas_X"   "FluxGas_Y"   "FluxGas_Z"   "PorVelGas"  "PorVelGasX"  "PorVelGasY"  "PorVelGasZ"    "HeatFlux"  "HeatFlux_X"  "HeatFlux_Y"  "HeatFlux_Z"                                                                                                                                                                                                                                                                                                                                                                                                                                                                                                
Zone T= "5.18400000E+05 sec" I=     9 J=    10 K=    23 F=Point
  1.250000E+02  1.250000E+02 -5.425000E+03  4.946790E-07  6.923913E-16  1.387883E-15  4.946790E-07  2.831782E-09  3.980131E-18  7.978082E-18  2.831782E-09  0.000000E+00  0.000000E+00  0.000000E+00  0.000000E+00  0.000000E+00  0.000000E+00  0.000000E+00  0.000000E+00  6.034972E-01  7.294761E-10  1.442043E-09  6.034972E-01                                                                                                                                                                                                                                                                                                                                                                                                                                                                                              
  3.750000E+02  1.250000E+02 -5.425000E+03  4.946790E-07 -3.131237E-15  8.938913E-16  4.946790E-07  2.831782E-09 -1.799955E-17  5.138430E-18  2.831782E-09  0.000000E+00  0.000000E+00  0.000000E+00  0.000000E+00  0.000000E+00  0.000000E+00  0.000000E+00  0.000000E+00  6.034972E-01 -3.249006E-09  9.243668E-10  6.034972E-01                                                                                                                                                                                                                                                                                                                                                                                                                                                                                              
  6.250000E+02  1.250000E+02 -5.425000E+03  4.946790E-07 -9.667875E-14  7.984509E-16  4.946790E-07  2.831782E-09 -5.557465E-16  4.589801E-18  2.831782E-09  0.000000E+00  0.000000E+00  0.000000E+00  0.000000E+00  0.000000E+00  0.000000E+00  0.000000E+00  0.000000E+00  6.034972E-01 -9.855426E-08  8.250786E-10  6.034972E-01                                                                                                                                                                                                                                                                                                                                                                                                                                                                                              
  8.750000E+02  1.250000E+02 -5.425000E+03  4.946791E-07 -1.835429E-11  1.104279E-16  4.946791E-07  2.831783E-09 -1.055075E-13  6.347819E-19  2.831783E-09  0.000000E+00  0.000000E+00  0.000000E+00  0.000000E+00  0.000000E+00  0.000000E+00  0.000000E+00  0.000000E+00  6.034973E-01 -1.914661E-05  1.105003E-10  6.034973E-01                                                                                                                                                                                                                                                                                                                                                                                                                                                                                              
  1.050000E+03  1.250000E+02 -5.425000E+03  4.946952E-07  1.298830E-15 -7.234030E-16  4.946952E-07  2.831875E-09  7.466171E-18 -4.158398E-18  2.831875E-09  0.000000E+00  0.000000E+00  0.000000E+00  0.000000E+00  0.000000E+00  0.000000E+00  0.000000E+00  0.000000E+00  6.035141E-01  1.360223E-09 -7.597360E-10  6.035141E-01                                                                                                                                                                                                                                                                                                                                                                                                                                                                                              
  1.225000E+03  1.250000E+02 -5.425000E+03  4.946791E-07  1.835468E-11  1.931557E-16  4.946791E-07  2.831783E-09  1.055097E-13  1.110333E-18  2.831783E-09  0.000000E+00  0.000000E+00  0.000000E+00  0.000000E+00  0.000000E+00  0.000000E+00  0.000000E+00  0.000000E+00  6.034973E-01  1.914702E-05  1.920211E-10  6.034973E-01                                                                                                                                                                                                                                                                                                                                                                                                                                                                                              
  1.475000E+03  1.250000E+02 -5.425000E+03  4.946790E-07  9.594849E-14  7.982294E-16  4.946790E-07  2.831782E-09  5.515487E-16  4.588529E-18  2.831782E-09  0.000000E+00  0.000000E+00  0.000000E+00  0.000000E+00  0.000000E+00  0.000000E+00  0.000000E+00  0.000000E+00  6.034972E-01  9.778392E-08  8.248532E-10  6.034972E-01                                                                                                                                                                                                                                                                                                                                                                                                                                                                                              
  1.725000E+03  1.250000E+02 -5.425000E+03  4.946790E-07  3.572928E-15  7.130960E-16  4.946790E-07  2.831782E-09  2.053856E-17  4.099149E-18  2.831782E-09  0.000000E+00  0.000000E+00  0.000000E+00  0.000000E+00  0.000000E+00  0.000000E+00  0.000000E+00  0.000000E+00  6.034972E-01  3.707257E-09  7.406275E-10  6.034972E-01                                                                                                                                                                                                                                                                                                                                                                                                                                                                                              
  1.975000E+03  1.250000E+02 -5.425000E+03  4.946790E-07 -4.270362E-16 -9.452452E-17  4.946790E-07  2.831782E-09 -2.454768E-18 -5.433632E-19  2.831782E-09  0.000000E+00  0.000000E+00  0.000000E+00  0.000000E+00  0.000000E+00  0.000000E+00  0.000000E+00  0.000000E+00  6.034972E-01 -4.504240E-10 -9.860318E-11  6.034972E-01                                                                                                                                                                                                                                                                                                                                                                                                                                                                                              
  1.250000E+02  1.250000E+02 -5.225000E+03  9.626484E-07  1.626665E-16 -9.003907E-17  9.626484E-07  5.486102E-09  9.273155E-19 -5.132871E-19  5.486102E-09  0.000000E+00  0.000000E+00  0.000000E+00  0.000000E+00  0.000000E+00  0.000000E+00  0.000000E+00  0.000000E+00  1.163170E+00  1.637260E-10 -9.087517E-11  1.163170E+00                                                                                                                                                                                                                                                                                                                                                                                                                                                                                              
  3.750000E+02  1.250000E+02 -5.225000E+03  9.626483E-07  1.134125E-16  5.323183E-17  9.626483E-07  5.486102E-09  6.465325E-19  3.034595E-19  5.486102E-09  0.000000E+00  0.000000E+00  0.000000E+00  0.000000E+00  0.000000E+00  0.000000E+00  0.000000E+00  0.000000E+00  1.163170E+00  1.149998E-10  5.377571E-11  1.163170E+00                                                                                                                                                                                                                                                                                                                                                                                                                                                                                              
  6.250000E+02  1.250000E+02 -5.225000E+03  9.626484E-07 -8.845682E-16  2.111111E-16  9.626484E-07  5.486102E-09 -5.042672E-18  1.203484E-18  5.486102E-09  0.000000E+00  0.000000E+00  0.000000E+00  0.000000E+00  0.000000E+00  0.000000E+00  0.000000E+00  0.000000E+00  1.163170E+00 -8.680875E-10  2.127874E-10  1.163170E+00                                                                                                                                                                                                                                                                                                                                                                                                                                                                                              
  8.750000E+02  1.250000E+02 -5.225000E+03  9.626485E-07 -1.131384E-13 -3.229641E-17  9.626485E-07  5.486102E-09 -6.449697E-16 -1.841126E-19  5.486102E-09  0.000000E+00  0.000000E+00  0.000000E+00  0.000000E+00  0.000000E+00  0.000000E+00  0.000000E+00  0.000000E+00  1.163170E+00 -1.112025E-07 -3.262965E-11  1.163170E+00                                                                                                                                                                                                                                                                                                                                                                                                                                                                                              
  1.050000E+03  1.250000E+02 -5.225000E+03  9.626646E-07 -1.253559E-16 -9.944570E-17  9.626646E-07  5.486194E-09 -7.146181E-19 -5.669116E-19  5.486194E-09  0.000000E+00  0.000000E+00  0.000000E+00  0.000000E+00  0.000000E+00  0.000000E+00  0.000000E+00  0.000000E+00  1.163187E+00 -1.263968E-10 -1.003134E-10  1.163187E+00                                                                                                                                                                                                                                                                                                                                                                                                                                                                                              
  1.225000E+03  1.250000E+02 -5.225000E+03  9.626485E-07  1.131006E-13  5.115901E-17  9.626485E-07  5.486102E-09  6.447541E-16  2.916430E-19  5.486102E-09  0.000000E+00  0.000000E+00  0.000000E+00  0.000000E+00  0.000000E+00  0.000000E+00  0.000000E+00  0.000000E+00  1.163170E+00  1.111644E-07  5.144804E-11  1.163170E+00                                                                                                                                                                                                                                                                                                                                                                                                                                                                                              
  1.475000E+03  1.250000E+02 -5.225000E+03  9.626484E-07  9.665924E-16  2.114171E-16  9.626484E-07  5.486102E-09  5.510268E-18  1.205229E-18  5.486102E-09  0.000000E+00  0.000000E+00  0.000000E+00  0.000000E+00  0.000000E+00  0.000000E+00  0.000000E+00  0.000000E+00  1.163170E+00  9.509251E-10  2.130882E-10  1.163170E+00                                                                                                                                                                                                                                                                                                                                                                                                                                                                                              
  1.725000E+03  1.250000E+02 -5.225000E+03  9.626483E-07  1.023378E-16  9.873502E-17  9.626483E-07  5.486102E-09  5.833985E-19  5.628602E-19  5.486102E-09  0.000000E+00  0.000000E+00  0.000000E+00  0.000000E+00  0.000000E+00  0.000000E+00  0.000000E+00  0.000000E+00  1.163170E+00  1.026483E-10  9.938626E-11  1.163170E+00                                                                                                                                                                                                                                                                                                                                                                                                                                                                                              
  1.975000E+03  1.250000E+02 -5.225000E+03  9.626483E-07  5.859153E-17  7.896432E-19  9.626483E-07  5.486102E-09  3.340136E-19  4.501531E-21  5.486102E-09  0.000000E+00  0.000000E+00  0.000000E+00  0.000000E+00  0.000000E+00  0.000000E+00  0.000000E+00  0.000000E+00  1.163170E+00  5.934878E-11  8.034976E-13  1.163170E+00                                                                                                                                                                                                                                                                                                                                                                                                                                                                                              
  1.250000E+02  1.250000E+02 -4.975000E+03  8.967850E-07 -4.071917E-17  2.632001E-18  8.967850E-07  5.062591E-09 -2.298011E-19  1.485386E-20  5.062591E-09  0.000000E+00  0.000000E+00  0.000000E+00  0.000000E+00  0.000000E+00  0.000000E+00  0.000000E+00  0.000000E+00  1.061870E+00 -3.904333E-11  2.414619E-12  1.061870E+00                                                                                                                                                                                                                                                                                                                                                                                                                                                                                              
  3.750000E+02  1.250000E+02 -4.975000E+03  8.967850E-07 -3.054658E-17  1.271814E-17  8.967850E-07  5.062591E-09 -1.723915E-19  7.177556E-20  5.062591E-09  0.000000E+00  0.000000E+00  0.000000E+00  0.000000E+00  0.000000E+00  0.000000E+00  0.000000E+00  0.000000E+00  1.061870E+00 -2.947378E-11  1.200199E-11  1.061870E+00                                                                                                                                                                                                                                                                                                                                                                                                                                                                                              
  6.250000E+02  1.250000E+02 -4.975000E+03  8.967850E-07 -2.036247E-16 -8.897894E-17  8.967850E-07  5.062591E-09 -1.149168E-18 -5.021579E-19  5.062591E-09  0.000000E+00  0.000000E+00  0.000000E+00  0.000000E+00  0.000000E+00  0.000000E+00  0.000000E+00  0.000000E+00  1.061870E+00 -1.966085E-10 -8.588136E-11  1.061870E+00                                                                                                                                                                                                                                                                                                                                                                                                                                                                                              
  8.750000E+02  1.250000E+02 -4.975000E+03  8.967850E-07 -3.742972E-16 -2.401461E-19  8.967850E-07  5.062591E-09 -2.112368E-18 -1.355279E-21  5.062591E-09  0.000000E+00  0.000000E+00  0.000000E+00  0.000000E+00  0.000000E+00  0.000000E+00  0.000000E+00  0.000000E+00  1.061870E+00 -3.497747E-10 -2.255232E-13  1.061870E+00                                                                                                                                                                                                                                                                                                                                                                                                                                                                                              
  1.050000E+03  1.250000E+02 -4.975000E+03  8.967851E-07 -2.881753E-19 -9.029494E-19  8.967851E-07  5.062592E-09 -1.626335E-21 -5.095848E-21  5.062592E-09  0.000000E+00  0.000000E+00  0.000000E+00  0.000000E+00  0.000000E+00  0.000000E+00  0.000000E+00  0.000000E+00  1.061871E+00 -2.706929E-13 -8.466145E-13  1.061871E+00                                                                                                                                                                                                                                                                                                                                                                                                                                                                                              
  1.225000E+03  1.250000E+02 -4.975000E+03  8.967850E-07  3.742108E-16 -4.485929E-18  8.967850E-07  5.062591E-09  2.111881E-18 -2.531661E-20  5.062591E-09  0.000000E+00  0.000000E+00  0.000000E+00  0.000000E+00  0.000000E+00  0.000000E+00  0.000000E+00  0.000000E+00  1.061870E+00  3.496935E-10 -4.200075E-12  1.061870E+00                                                                                                                                                                                                                                                                                                                                                                                                                                                                                              
  1.475000E+03  1.250000E+02 -4.975000E+03  8.967850E-07  2.037400E-16 -8.898854E-17  8.967850E-07  5.062591E-09  1.149819E-18 -5.022121E-19  5.062591E-09  0.000000E+00  0.000000E+00  0.000000E+00  0.000000E+00  0.000000E+00  0.000000E+00  0.000000E+00  0.000000E+00  1.061870E+00  1.967169E-10 -8.589037E-11  1.061870E+00                                                                                                                                                                                                                                                                                                                                                                                                                                                                                              
  1.725000E+03  1.250000E+02 -4.975000E+03  8.967850E-07  2.305403E-19  1.263169E-17  8.967850E-07  5.062591E-09  1.301068E-21  7.128766E-20  5.062591E-09  0.000000E+00  0.000000E+00  0.000000E+00  0.000000E+00  0.000000E+00  0.000000E+00  0.000000E+00  0.000000E+00  1.061870E+00  2.153768E-13  1.192090E-11  1.061870E+00                                                                                                                                                                                                                                                                                                                                                                                                                                                                                              
  1.975000E+03  1.250000E+02 -4.975000E+03  8.967850E-07  1.048958E-17 -8.295607E-17  8.967850E-07  5.062591E-09  5.919858E-20 -4.681675E-19  5.062591E-09  0.000000E+00  0.000000E+00  0.000000E+00  0.000000E+00  0.000000E+00  0.000000E+00  0.000000E+00  0.000000E+00  1.061870E+00  9.866010E-12 -8.019712E-11  1.061870E+00                                                                                                                                                                                                                                                                                                                                                                                                                                                                                              
  1.250000E+02  1.250000E+02 -4.725000E+03  9.738659E-07 -1.280227E-17 -1.269977E-17  9.738659E-07  5.444449E-09 -7.155085E-20 -7.097803E-20  5.444449E-09  0.000000E+00  0.000000E+00  0.000000E+00  0.000000E+00  0.000000E+00  0.000000E+00  0.000000E+00  0.000000E+00  1.089306E+00 -1.142088E-11 -1.132928E-11  1.089306E+00                                                                                                                                                                                                                                                                                                                                                                                                                                                                                              
  3.750000E+02  1.250000E+02 -4.725000E+03  9.738659E-07 -1.274636E-17  2.798982E-17  9.738659E-07  5.444449E-09 -7.123840E-20  1.564329E-19  5.444449E-09  0.000000E+00  0.000000E+00  0.000000E+00  0.000000E+00  0.000000E+00  0.000000E+00  0.000000E+00  0.000000E+00  1.089306E+00 -1.137092E-11  2.503544E-11  1.089306E+00                                                                                                                                                                                                                                                                                                                                                                                                                                                                                              
  6.250000E+02  1.250000E+02 -4.725000E+03  9.738659E-07  2.760780E-17  2.778483E-17  9.738659E-07  5.444449E-09  1.542978E-19  1.552872E-19  5.444449E-09  0.000000E+00  0.000000E+00  0.000000E+00  0.000000E+00  0.000000E+00  0.000000E+00  0.000000E+00  0.000000E+00  1.089306E+00  2.469091E-11  2.485196E-11  1.089306E+00                                                                                                                                                                                                                                                                                                                                                                                                                                                                                              
  8.750000E+02  1.250000E+02 -4.725000E+03  9.738659E-07  8.831541E-17  2.515729E-19  9.738659E-07  5.444449E-09  4.935878E-19  1.406021E-21  5.444449E-09  0.000000E+00  0.000000E+00  0.000000E+00  0.000000E+00  0.000000E+00  0.000000E+00  0.000000E+00  0.000000E+00  1.089306E+00  7.908071E-11  2.279563E-13  1.089306E+00                                                                                                                                                                                                                                                                                                                                                                                                                                                                                              
  1.050000E+03  1.250000E+02 -4.725000E+03  9.738659E-07 -3.008227E-18 -2.810163E-17  9.738659E-07  5.444449E-09 -1.681274E-20 -1.570578E-19  5.444449E-09  0.000000E+00  0.000000E+00  0.000000E+00  0.000000E+00  0.000000E+00  0.000000E+00  0.000000E+00  0.000000E+00  1.089306E+00 -2.777768E-12 -2.516578E-11  1.089306E+00                                                                                                                                                                                                                                                                                                                                                                                                                                                                                              
  1.225000E+03  1.250000E+02 -4.725000E+03  9.738659E-07 -8.919924E-17  2.375967E-18  9.738659E-07  5.444449E-09 -4.985275E-19  1.327909E-20  5.444449E-09  0.000000E+00  0.000000E+00  0.000000E+00  0.000000E+00  0.000000E+00  0.000000E+00  0.000000E+00  0.000000E+00  1.089306E+00 -7.989739E-11  2.189048E-12  1.089306E+00                                                                                                                                                                                                                                                                                                                                                                                                                                                                                              
  1.475000E+03  1.250000E+02 -4.725000E+03  9.738659E-07 -2.558590E-17  2.777551E-17  9.738659E-07  5.444449E-09 -1.429976E-19  1.552351E-19  5.444449E-09  0.000000E+00  0.000000E+00  0.000000E+00  0.000000E+00  0.000000E+00  0.000000E+00  0.000000E+00  0.000000E+00  1.089306E+00 -2.282454E-11  2.484364E-11  1.089306E+00                                                                                                                                                                                                                                                                                                                                                                                                                                                                                              
  1.725000E+03  1.250000E+02 -4.725000E+03  9.738659E-07  2.788732E-17  2.811095E-17  9.738659E-07  5.444449E-09  1.558600E-19  1.571098E-19  5.444449E-09  0.000000E+00  0.000000E+00  0.000000E+00  0.000000E+00  0.000000E+00  0.000000E+00  0.000000E+00  0.000000E+00  1.089306E+00  2.494384E-11  2.514653E-11  1.089306E+00                                                                                                                                                                                                                                                                                                                                                                                                                                                                                              