Title="TOUGHREACT V3.30-OMP flowvector.tec: Liq & Gas Fluxes (kg/s/m^2), Pore Velocities (m/s), & Heat Fluxes (J/s/m2)"                                                                                                                                                                                                                                                                                                                                                                                                                                                                                                                                                                                                                                                                                                         
Variables= "X(m)"     "Y(m)"      "Z(m)"     "FluxLiq"   "FluxLiq_X"   "FluxLiq_Y"   "FluxLiq_Z"   "PorVelLiq"  "PorVelLiqX"  "PorVelLiqY"  "PorVelLiqZ"     "FluxGas"   "FluxGas_X"   "FluxGas_Y"   "FluxGas_Z"   "PorVelGas"  "PorVelGasX"  "PorVelGasY"  "PorVelGasZ"    "HeatFlux"  "HeatFlux_X"  "HeatFlux_Y"  "HeatFlux_Z"                                                                                                                                                                                                                                                                                                                                                                                                                                                                                                
Zone T= "1.00000000E+09 sec" I=     9 J=    10 K=    23 F=Point
  1.250000E+02  1.250000E+02 -5.425000E+03  2.067930E-08 -1.759492E-11 -2.247575E-15  2.067929E-08  1.189184E-10 -1.016021E-13 -1.297865E-17  1.189184E-10  0.000000E+00  0.000000E+00  0.000000E+00  0.000000E+00  0.000000E+00  0.000000E+00  0.000000E+00  0.000000E+00  1.182543E-01 -1.788220E-05  3.177906E-09  1.182543E-01                                                                                                                                                                                                                                                                                                                                                                                                                                                                                              
  3.750000E+02  1.250000E+02 -5.425000E+03  2.068325E-08 -5.923537E-11 -1.172959E-14  2.068317E-08  1.189412E-10 -3.420554E-13 -6.773266E-17  1.189407E-10  0.000000E+00  0.000000E+00  0.000000E+00  0.000000E+00  0.000000E+00  0.000000E+00  0.000000E+00  0.000000E+00  1.182582E-01 -6.034101E-05 -1.166286E-08  1.182582E-01                                                                                                                                                                                                                                                                                                                                                                                                                                                                                              
  6.250000E+02  1.250000E+02 -5.425000E+03  2.069674E-08 -1.282321E-10  4.777708E-15  2.069634E-08  1.190187E-10 -7.404783E-13  2.758894E-17  1.190164E-10  0.000000E+00  0.000000E+00  0.000000E+00  0.000000E+00  0.000000E+00  0.000000E+00  0.000000E+00  0.000000E+00  1.182718E-01 -1.422708E-04  5.608634E-09  1.182718E-01                                                                                                                                                                                                                                                                                                                                                                                                                                                                                              
  8.750000E+02  1.250000E+02 -5.425000E+03  2.074682E-08 -2.422824E-10  2.203779E-15  2.074540E-08  1.193068E-10 -1.399092E-12  1.272576E-17  1.192986E-10  0.000000E+00  0.000000E+00  0.000000E+00  0.000000E+00  0.000000E+00  0.000000E+00  0.000000E+00  0.000000E+00  1.183403E-01 -1.008272E-03 -1.569022E-09  1.183360E-01                                                                                                                                                                                                                                                                                                                                                                                                                                                                                              
  1.050000E+03  1.250000E+02 -5.425000E+03  2.094298E-08 -2.655679E-14  2.583666E-15  2.094298E-08  1.204386E-10 -1.533572E-16  1.492038E-17  1.204386E-10  0.000000E+00  0.000000E+00  0.000000E+00  0.000000E+00  0.000000E+00  0.000000E+00  0.000000E+00  0.000000E+00  1.191856E-01 -3.305048E-08  3.118535E-09  1.191856E-01                                                                                                                                                                                                                                                                                                                                                                                                                                                                                              
  1.225000E+03  1.250000E+02 -5.425000E+03  2.074684E-08  2.422710E-10  1.925183E-14  2.074543E-08  1.193069E-10  1.399026E-12  1.111701E-16  1.192987E-10  0.000000E+00  0.000000E+00  0.000000E+00  0.000000E+00  0.000000E+00  0.000000E+00  0.000000E+00  0.000000E+00  1.183403E-01  1.008257E-03  1.892697E-08  1.183360E-01                                                                                                                                                                                                                                                                                                                                                                                                                                                                                              
  1.475000E+03  1.250000E+02 -5.425000E+03  2.069674E-08  1.282280E-10  1.614591E-14  2.069634E-08  1.190187E-10  7.404543E-13  9.323479E-17  1.190164E-10  0.000000E+00  0.000000E+00  0.000000E+00  0.000000E+00  0.000000E+00  0.000000E+00  0.000000E+00  0.000000E+00  1.182718E-01  1.422664E-04  2.153784E-08  1.182718E-01                                                                                                                                                                                                                                                                                                                                                                                                                                                                                              
  1.725000E+03  1.250000E+02 -5.425000E+03  2.068327E-08  5.922673E-11  2.968734E-14  2.068319E-08  1.189413E-10  3.420056E-13  1.714300E-16  1.189408E-10  0.000000E+00  0.000000E+00  0.000000E+00  0.000000E+00  0.000000E+00  0.000000E+00  0.000000E+00  0.000000E+00  1.182583E-01  6.033544E-05  2.677475E-08  1.182583E-01                                                                                                                                                                                                                                                                                                                                                                                                                                                                                              
  1.975000E+03  1.250000E+02 -5.425000E+03  2.067931E-08  1.760559E-11  1.440972E-14  2.067930E-08  1.189185E-10  1.016637E-13  8.320914E-17  1.189184E-10  0.000000E+00  0.000000E+00  0.000000E+00  0.000000E+00  0.000000E+00  0.000000E+00  0.000000E+00  0.000000E+00  1.182543E-01  1.789974E-05  1.195085E-08  1.182543E-01                                                                                                                                                                                                                                                                                                                                                                                                                                                                                              
  1.250000E+02  1.250000E+02 -5.225000E+03  7.987199E-08 -1.421272E-11 -3.358167E-15  7.987198E-08  4.558553E-10 -8.131972E-14 -1.921414E-17  4.558553E-10  0.000000E+00  0.000000E+00  0.000000E+00  0.000000E+00  0.000000E+00  0.000000E+00  0.000000E+00  0.000000E+00  2.759902E-01 -1.396284E-05 -5.275790E-09  2.759902E-01                                                                                                                                                                                                                                                                                                                                                                                                                                                                                              
  3.750000E+02  1.250000E+02 -5.225000E+03  7.988187E-08 -4.473876E-11 -3.185728E-15  7.988186E-08  4.559118E-10 -2.559779E-13 -1.822751E-17  4.559118E-10  0.000000E+00  0.000000E+00  0.000000E+00  0.000000E+00  0.000000E+00  0.000000E+00  0.000000E+00  0.000000E+00  2.760000E-01 -4.395988E-05 -3.419047E-09  2.760000E-01                                                                                                                                                                                                                                                                                                                                                                                                                                                                                              
  6.250000E+02  1.250000E+02 -5.225000E+03  7.990978E-08 -7.881873E-11 -1.614208E-15  7.990975E-08  4.560714E-10 -4.509703E-13 -9.235873E-18  4.560712E-10  0.000000E+00  0.000000E+00  0.000000E+00  0.000000E+00  0.000000E+00  0.000000E+00  0.000000E+00  0.000000E+00  2.760280E-01 -7.778565E-05 -1.213440E-09  2.760280E-01                                                                                                                                                                                                                                                                                                                                                                                                                                                                                              
  8.750000E+02  1.250000E+02 -5.225000E+03  7.998789E-08 -9.207760E-11  1.133717E-15  7.998784E-08  4.565189E-10 -5.268326E-13  6.486692E-18  4.565186E-10  0.000000E+00  0.000000E+00  0.000000E+00  0.000000E+00  0.000000E+00  0.000000E+00  0.000000E+00  0.000000E+00  2.761211E-01 -1.049208E-04  3.032362E-09  2.761211E-01                                                                                                                                                                                                                                                                                                                                                                                                                                                                                              
  1.050000E+03  1.250000E+02 -5.225000E+03  8.021296E-08 -8.041144E-16  1.659113E-15  8.021296E-08  4.578155E-10 -4.600868E-18  9.492813E-18  4.578155E-10  0.000000E+00  0.000000E+00  0.000000E+00  0.000000E+00  0.000000E+00  0.000000E+00  0.000000E+00  0.000000E+00  2.770078E-01  2.347174E-09  2.337546E-09  2.770078E-01                                                                                                                                                                                                                                                                                                                                                                                                                                                                                              
  1.225000E+03  1.250000E+02 -5.225000E+03  7.998792E-08  9.207479E-11  2.276444E-15  7.998786E-08  4.565191E-10  5.268165E-13  1.302493E-17  4.565188E-10  0.000000E+00  0.000000E+00  0.000000E+00  0.000000E+00  0.000000E+00  0.000000E+00  0.000000E+00  0.000000E+00  2.761212E-01  1.049187E-04 -3.683223E-10  2.761211E-01                                                                                                                                                                                                                                                                                                                                                                                                                                                                                              
  1.475000E+03  1.250000E+02 -5.225000E+03  7.990979E-08  7.881142E-11  4.297997E-15  7.990975E-08  4.560715E-10  4.509285E-13  2.459148E-17  4.560712E-10  0.000000E+00  0.000000E+00  0.000000E+00  0.000000E+00  0.000000E+00  0.000000E+00  0.000000E+00  0.000000E+00  2.760280E-01  7.777567E-05  3.687572E-09  2.760280E-01                                                                                                                                                                                                                                                                                                                                                                                                                                                                                              
  1.725000E+03  1.250000E+02 -5.225000E+03  7.988190E-08  4.473471E-11  8.940597E-15  7.988189E-08  4.559120E-10  2.559548E-13  5.115466E-17  4.559119E-10  0.000000E+00  0.000000E+00  0.000000E+00  0.000000E+00  0.000000E+00  0.000000E+00  0.000000E+00  0.000000E+00  2.760001E-01  4.395528E-05  8.976797E-09  2.760001E-01                                                                                                                                                                                                                                                                                                                                                                                                                                                                                              
  1.975000E+03  1.250000E+02 -5.225000E+03  7.987200E-08  1.421398E-11  6.303516E-15  7.987200E-08  4.558554E-10  8.132693E-14  3.606630E-17  4.558554E-10  0.000000E+00  0.000000E+00  0.000000E+00  0.000000E+00  0.000000E+00  0.000000E+00  0.000000E+00  0.000000E+00  2.759902E-01  1.396383E-05  7.048011E-09  2.759902E-01                                                                                                                                                                                                                                                                                                                                                                                                                                                                                              
  1.250000E+02  1.250000E+02 -4.975000E+03  1.541454E-07 -8.004160E-12  6.181266E-17  1.541454E-07  8.714746E-10 -4.528362E-14  3.497058E-19  8.714746E-10  0.000000E+00  0.000000E+00  0.000000E+00  0.000000E+00  0.000000E+00  0.000000E+00  0.000000E+00  0.000000E+00  3.465172E-01 -7.515024E-06 -3.464774E-10  3.465172E-01                                                                                                                                                                                                                                                                                                                                                                                                                                                                                              
  3.750000E+02  1.250000E+02 -4.975000E+03  1.541568E-07 -2.344021E-11  6.234706E-16  1.541568E-07  8.715394E-10 -1.326132E-13  3.527292E-18  8.715394E-10  0.000000E+00  0.000000E+00  0.000000E+00  0.000000E+00  0.000000E+00  0.000000E+00  0.000000E+00  0.000000E+00  3.465282E-01 -2.201260E-05  2.283118E-10  3.465282E-01                                                                                                                                                                                                                                                                                                                                                                                                                                                                                              
  6.250000E+02  1.250000E+02 -4.975000E+03  1.541823E-07 -3.434355E-11  7.380129E-16  1.541823E-07  8.716838E-10 -1.942990E-13  4.175316E-18  8.716838E-10  0.000000E+00  0.000000E+00  0.000000E+00  0.000000E+00  0.000000E+00  0.000000E+00  0.000000E+00  0.000000E+00  3.465528E-01 -3.227261E-05  1.069496E-09  3.465528E-01                                                                                                                                                                                                                                                                                                                                                                                                                                                                                              
  8.750000E+02  1.250000E+02 -4.975000E+03  1.542252E-07 -2.607050E-11  1.446210E-15  1.542252E-07  8.719272E-10 -1.474941E-13  8.181950E-18  8.719272E-10  0.000000E+00  0.000000E+00  0.000000E+00  0.000000E+00  0.000000E+00  0.000000E+00  0.000000E+00  0.000000E+00  3.465947E-01 -2.468399E-05  1.854279E-09  3.465947E-01                                                                                                                                                                                                                                                                                                                                                                                                                                                                                              
  1.050000E+03  1.250000E+02 -4.975000E+03  1.542570E-07  3.075282E-15  1.371163E-15  1.542570E-07  8.721077E-10  1.739844E-17  7.757366E-18  8.721077E-10  0.000000E+00  0.000000E+00  0.000000E+00  0.000000E+00  0.000000E+00  0.000000E+00  0.000000E+00  0.000000E+00  3.466358E-01  3.074092E-09  1.782397E-09  3.466358E-01                                                                                                                                                                                                                                                                                                                                                                                                                                                                                              
  1.225000E+03  1.250000E+02 -4.975000E+03  1.542252E-07  2.607241E-11  9.457596E-16  1.542252E-07  8.719273E-10  1.475049E-13  5.350644E-18  8.719272E-10  0.000000E+00  0.000000E+00  0.000000E+00  0.000000E+00  0.000000E+00  0.000000E+00  0.000000E+00  0.000000E+00  3.465947E-01  2.468610E-05  9.705990E-10  3.465947E-01                                                                                                                                                                                                                                                                                                                                                                                                                                                                                              
  1.475000E+03  1.250000E+02 -4.975000E+03  1.541823E-07  3.434062E-11  9.760363E-16  1.541823E-07  8.716838E-10  1.942824E-13  5.521936E-18  8.716838E-10  0.000000E+00  0.000000E+00  0.000000E+00  0.000000E+00  0.000000E+00  0.000000E+00  0.000000E+00  0.000000E+00  3.465528E-01  3.226932E-05  5.864300E-10  3.465528E-01                                                                                                                                                                                                                                                                                                                                                                                                                                                                                              
  1.725000E+03  1.250000E+02 -4.975000E+03  1.541568E-07  2.343899E-11  2.286290E-15  1.541568E-07  8.715394E-10  1.326064E-13  1.293471E-17  8.715394E-10  0.000000E+00  0.000000E+00  0.000000E+00  0.000000E+00  0.000000E+00  0.000000E+00  0.000000E+00  0.000000E+00  3.465282E-01  2.201083E-05  2.290332E-09  3.465282E-01                                                                                                                                                                                                                                                                                                                                                                                                                                                                                              
  1.975000E+03  1.250000E+02 -4.975000E+03  1.541454E-07  8.004711E-12  6.366482E-16  1.541454E-07  8.714746E-10  4.528674E-14  3.601844E-18  8.714746E-10  0.000000E+00  0.000000E+00  0.000000E+00  0.000000E+00  0.000000E+00  0.000000E+00  0.000000E+00  0.000000E+00  3.465172E-01  7.515584E-06  8.481562E-10  3.465172E-01                                                                                                                                                                                                                                                                                                                                                                                                                                                                                              
  1.250000E+02  1.250000E+02 -4.725000E+03  2.209635E-07 -2.498992E-12  4.114100E-15  2.209635E-07  1.237485E-09 -1.398732E-14  2.302739E-17  1.237485E-09  0.000000E+00  0.000000E+00  0.000000E+00  0.000000E+00  0.000000E+00  0.000000E+00  0.000000E+00  0.000000E+00  4.009097E-01 -2.242172E-06 -4.589810E-09  4.009097E-01                                                                                                                                                                                                                                                                                                                                                                                                                                                                                              
  3.750000E+02  1.250000E+02 -4.725000E+03  2.209740E-07 -7.048163E-12  4.915352E-15  2.209740E-07  1.237543E-09 -3.944989E-14  2.751215E-17  1.237543E-09  0.000000E+00  0.000000E+00  0.000000E+00  0.000000E+00  0.000000E+00  0.000000E+00  0.000000E+00  0.000000E+00  4.009193E-01 -6.323467E-06 -4.440384E-09  4.009193E-01                                                                                                                                                                                                                                                                                                                                                                                                                                                                                              
  6.250000E+02  1.250000E+02 -4.725000E+03  2.209939E-07 -9.467497E-12  4.101647E-15  2.209939E-07  1.237655E-09 -5.299135E-14  2.295768E-17  1.237655E-09  0.000000E+00  0.000000E+00  0.000000E+00  0.000000E+00  0.000000E+00  0.000000E+00  0.000000E+00  0.000000E+00  4.009375E-01 -8.493454E-06 -4.822458E-09  4.009375E-01                                                                                                                                                                                                                                                                                                                                                                                                                                                                                              
  8.750000E+02  1.250000E+02 -4.725000E+03  2.210177E-07 -6.146927E-12  4.196518E-15  2.210177E-07  1.237788E-09 -3.440550E-14  2.348870E-17  1.237788E-09  0.000000E+00  0.000000E+00  0.000000E+00  0.000000E+00  0.000000E+00  0.000000E+00  0.000000E+00  0.000000E+00  4.009594E-01 -5.519680E-06 -4.723754E-09  4.009594E-01                                                                                                                                                                                                                                                                                                                                                                                                                                                                                              
  1.050000E+03  1.250000E+02 -4.725000E+03  2.210236E-07  2.103201E-15  4.371030E-15  2.210236E-07  1.237822E-09  1.177201E-17  2.446547E-17  1.237822E-09  0.000000E+00  0.000000E+00  0.000000E+00  0.000000E+00  0.000000E+00  0.000000E+00  0.000000E+00  0.000000E+00  4.009650E-01 -2.067917E-09 -4.523385E-09  4.009650E-01                                                                                                                                                                                                                                                                                                                                                                                                                                                                                              
  1.225000E+03  1.250000E+02 -4.725000E+03  2.210177E-07  6.149865E-12  4.070318E-15  2.210177E-07  1.237788E-09  3.442195E-14  2.278233E-17  1.237788E-09  0.000000E+00  0.000000E+00  0.000000E+00  0.000000E+00  0.000000E+00  0.000000E+00  0.000000E+00  0.000000E+00  4.009594E-01  5.516551E-06 -3.663442E-09  4.009594E-01                                                                                                                                                                                                                                                                                                                                                                                                                                                                                              
  1.475000E+03  1.250000E+02 -4.725000E+03  2.209939E-07  9.466031E-12  3.257190E-15  2.209939E-07  1.237655E-09  5.298314E-14  1.823110E-17  1.237655E-09  0.000000E+00  0.000000E+00  0.000000E+00  0.000000E+00  0.000000E+00  0.000000E+00  0.000000E+00  0.000000E+00  4.009374E-01  8.499421E-06 -6.330544E-10  4.009374E-01                                                                                                                                                                                                                                                                                                                                                                                                                                                                                              
  1.725000E+03  1.250000E+02 -4.725000E+03  2.209740E-07  7.051638E-12  6.184437E-15  2.209740E-07  1.237543E-09  3.946933E-14  3.461545E-17  1.237543E-09  0.000000E+00  0.000000E+00  0.000000E+00  0.000000E+00  0.000000E+00  0.000000E+00  0.000000E+00  0.000000E+00  4.009194E-01  6.320399E-06 -1.156326E-08  4.009194E-01                                                                                                                                                                                                                                                                                                                                                                                                                                                                                              