Title="TOUGHREACT V3.30-OMP flowvector.tec: Liq & Gas Fluxes (kg/s/m^2), Pore Velocities (m/s), & Heat Fluxes (J/s/m2)"                                                                                                                                                                                                                                                                                                                                                                                                                                                                                                                                                                                                                                                                                                         
Variables= "X(m)"     "Y(m)"      "Z(m)"     "FluxLiq"   "FluxLiq_X"   "FluxLiq_Y"   "FluxLiq_Z"   "PorVelLiq"  "PorVelLiqX"  "PorVelLiqY"  "PorVelLiqZ"     "FluxGas"   "FluxGas_X"   "FluxGas_Y"   "FluxGas_Z"   "PorVelGas"  "PorVelGasX"  "PorVelGasY"  "PorVelGasZ"    "HeatFlux"  "HeatFlux_X"  "HeatFlux_Y"  "HeatFlux_Z"                                                                                                                                                                                                                                                                                                                                                                                                                                                                                                
Zone T= "3.15569000E+08 sec" I=     9 J=    10 K=    23 F=Point
  1.250000E+02  1.250000E+02 -5.425000E+03  5.496389E-08 -1.682246E-11 -8.972782E-15  5.496389E-08  3.155139E-10 -9.697576E-14 -5.172504E-17  3.155139E-10  0.000000E+00  0.000000E+00  0.000000E+00  0.000000E+00  0.000000E+00  0.000000E+00  0.000000E+00  0.000000E+00  1.548321E-01 -1.711985E-05 -1.118003E-08  1.548321E-01                                                                                                                                                                                                                                                                                                                                                                                                                                                                                              
  3.750000E+02  1.250000E+02 -5.425000E+03  5.496796E-08 -5.792575E-11 -7.211373E-15  5.496793E-08  3.155373E-10 -3.339222E-13 -4.157111E-17  3.155371E-10  0.000000E+00  0.000000E+00  0.000000E+00  0.000000E+00  0.000000E+00  0.000000E+00  0.000000E+00  0.000000E+00  1.548363E-01 -5.894755E-05 -5.947012E-09  1.548363E-01                                                                                                                                                                                                                                                                                                                                                                                                                                                                                              
  6.250000E+02  1.250000E+02 -5.425000E+03  5.498234E-08 -1.311226E-10  1.313761E-14  5.498219E-08  3.156198E-10 -7.558767E-13  7.573385E-17  3.156189E-10  0.000000E+00  0.000000E+00  0.000000E+00  0.000000E+00  0.000000E+00  0.000000E+00  0.000000E+00  0.000000E+00  1.548508E-01 -1.347454E-04  1.776816E-08  1.548508E-01                                                                                                                                                                                                                                                                                                                                                                                                                                                                                              
  8.750000E+02  1.250000E+02 -5.425000E+03  5.503706E-08 -2.985930E-10  1.372028E-14  5.503625E-08  3.159339E-10 -1.721299E-12  7.909273E-17  3.159292E-10  0.000000E+00  0.000000E+00  0.000000E+00  0.000000E+00  0.000000E+00  0.000000E+00  0.000000E+00  0.000000E+00  1.549085E-01 -5.687680E-04  1.490447E-08  1.549074E-01                                                                                                                                                                                                                                                                                                                                                                                                                                                                                              
  1.050000E+03  1.250000E+02 -5.425000E+03  5.522223E-08  3.353356E-14  5.463794E-15  5.522223E-08  3.170002E-10  1.933113E-16  3.149760E-17  3.170002E-10  0.000000E+00  0.000000E+00  0.000000E+00  0.000000E+00  0.000000E+00  0.000000E+00  0.000000E+00  0.000000E+00  1.553302E-01  3.897781E-08  3.281260E-09  1.553302E-01                                                                                                                                                                                                                                                                                                                                                                                                                                                                                              
  1.225000E+03  1.250000E+02 -5.425000E+03  5.503704E-08  2.986521E-10 -1.193659E-14  5.503623E-08  3.159338E-10  1.721640E-12 -6.881039E-17  3.159291E-10  0.000000E+00  0.000000E+00  0.000000E+00  0.000000E+00  0.000000E+00  0.000000E+00  0.000000E+00  0.000000E+00  1.549084E-01  5.688356E-04 -1.407987E-08  1.549074E-01                                                                                                                                                                                                                                                                                                                                                                                                                                                                                              
  1.475000E+03  1.250000E+02 -5.425000E+03  5.498230E-08  1.311285E-10 -2.115389E-14  5.498214E-08  3.156196E-10  7.559113E-13 -1.219450E-16  3.156186E-10  0.000000E+00  0.000000E+00  0.000000E+00  0.000000E+00  0.000000E+00  0.000000E+00  0.000000E+00  0.000000E+00  1.548508E-01  1.347545E-04 -2.768286E-08  1.548507E-01                                                                                                                                                                                                                                                                                                                                                                                                                                                                                              
  1.725000E+03  1.250000E+02 -5.425000E+03  5.496794E-08  5.787096E-11 -3.114783E-15  5.496791E-08  3.155372E-10  3.336063E-13 -1.795566E-17  3.155370E-10  0.000000E+00  0.000000E+00  0.000000E+00  0.000000E+00  0.000000E+00  0.000000E+00  0.000000E+00  0.000000E+00  1.548362E-01  5.888659E-05 -7.019656E-09  1.548362E-01                                                                                                                                                                                                                                                                                                                                                                                                                                                                                              
  1.975000E+03  1.250000E+02 -5.425000E+03  5.496391E-08  1.678729E-11  3.159721E-14  5.496391E-08  3.155140E-10  9.677301E-14  1.821472E-16  3.155140E-10  0.000000E+00  0.000000E+00  0.000000E+00  0.000000E+00  0.000000E+00  0.000000E+00  0.000000E+00  0.000000E+00  1.548322E-01  1.707838E-05  3.214533E-08  1.548322E-01                                                                                                                                                                                                                                                                                                                                                                                                                                                                                              
  1.250000E+02  1.250000E+02 -5.225000E+03  2.000181E-07 -1.332128E-11 -2.911645E-15  2.000181E-07  1.139745E-09 -7.608398E-14 -1.662975E-17  1.139745E-09  0.000000E+00  0.000000E+00  0.000000E+00  0.000000E+00  0.000000E+00  0.000000E+00  0.000000E+00  0.000000E+00  3.970398E-01 -1.308911E-05 -3.350778E-09  3.970398E-01                                                                                                                                                                                                                                                                                                                                                                                                                                                                                              
  3.750000E+02  1.250000E+02 -5.225000E+03  2.000279E-07 -4.244616E-11  1.007534E-15  2.000279E-07  1.139801E-09 -2.424296E-13  5.754491E-18  1.139801E-09  0.000000E+00  0.000000E+00  0.000000E+00  0.000000E+00  0.000000E+00  0.000000E+00  0.000000E+00  0.000000E+00  3.970496E-01 -4.170548E-05  1.683136E-09  3.970496E-01                                                                                                                                                                                                                                                                                                                                                                                                                                                                                              
  6.250000E+02  1.250000E+02 -5.225000E+03  2.000567E-07 -7.529046E-11  2.469429E-15  2.000567E-07  1.139966E-09 -4.300186E-13  1.410405E-17  1.139965E-09  0.000000E+00  0.000000E+00  0.000000E+00  0.000000E+00  0.000000E+00  0.000000E+00  0.000000E+00  0.000000E+00  3.970784E-01 -7.399730E-05  2.113778E-09  3.970784E-01                                                                                                                                                                                                                                                                                                                                                                                                                                                                                              
  8.750000E+02  1.250000E+02 -5.225000E+03  2.001390E-07 -8.404396E-11  3.013466E-15  2.001390E-07  1.140436E-09 -4.800138E-13  1.721130E-17  1.140436E-09  0.000000E+00  0.000000E+00  0.000000E+00  0.000000E+00  0.000000E+00  0.000000E+00  0.000000E+00  0.000000E+00  3.971628E-01 -8.433727E-05  3.530795E-09  3.971628E-01                                                                                                                                                                                                                                                                                                                                                                                                                                                                                              
  1.050000E+03  1.250000E+02 -5.225000E+03  2.003474E-07  1.102441E-14  1.931021E-15  2.003474E-07  1.141635E-09  6.296547E-17  1.102895E-17  1.141635E-09  0.000000E+00  0.000000E+00  0.000000E+00  0.000000E+00  0.000000E+00  0.000000E+00  0.000000E+00  0.000000E+00  3.976090E-01  1.078155E-08  1.016867E-09  3.976090E-01                                                                                                                                                                                                                                                                                                                                                                                                                                                                                              
  1.225000E+03  1.250000E+02 -5.225000E+03  2.001390E-07  8.406210E-11 -3.780285E-15  2.001389E-07  1.140436E-09  4.801174E-13 -2.159095E-17  1.140436E-09  0.000000E+00  0.000000E+00  0.000000E+00  0.000000E+00  0.000000E+00  0.000000E+00  0.000000E+00  0.000000E+00  3.971628E-01  8.435521E-05 -3.027978E-09  3.971628E-01                                                                                                                                                                                                                                                                                                                                                                                                                                                                                              
  1.475000E+03  1.250000E+02 -5.225000E+03  2.000566E-07  7.529905E-11 -1.058025E-15  2.000566E-07  1.139965E-09  4.300676E-13 -6.042869E-18  1.139965E-09  0.000000E+00  0.000000E+00  0.000000E+00  0.000000E+00  0.000000E+00  0.000000E+00  0.000000E+00  0.000000E+00  3.970783E-01  7.400693E-05 -1.512039E-10  3.970783E-01                                                                                                                                                                                                                                                                                                                                                                                                                                                                                              
  1.725000E+03  1.250000E+02 -5.225000E+03  2.000279E-07  4.244134E-11 -1.402161E-15  2.000279E-07  1.139801E-09  2.424021E-13 -8.008391E-18  1.139801E-09  0.000000E+00  0.000000E+00  0.000000E+00  0.000000E+00  0.000000E+00  0.000000E+00  0.000000E+00  0.000000E+00  3.970496E-01  4.169945E-05 -2.447959E-09  3.970496E-01                                                                                                                                                                                                                                                                                                                                                                                                                                                                                              
  1.975000E+03  1.250000E+02 -5.225000E+03  2.000181E-07  1.331499E-11 -1.151275E-15  2.000181E-07  1.139745E-09  7.604808E-14 -6.575465E-18  1.139745E-09  0.000000E+00  0.000000E+00  0.000000E+00  0.000000E+00  0.000000E+00  0.000000E+00  0.000000E+00  0.000000E+00  3.970398E-01  1.308061E-05 -1.499734E-09  3.970398E-01                                                                                                                                                                                                                                                                                                                                                                                                                                                                                              
  1.250000E+02  1.250000E+02 -4.975000E+03  3.590625E-07 -7.307429E-12  1.146838E-16  3.590625E-07  2.027206E-09 -4.127920E-14  6.478417E-19  2.027206E-09  0.000000E+00  0.000000E+00  0.000000E+00  0.000000E+00  0.000000E+00  0.000000E+00  0.000000E+00  0.000000E+00  5.427743E-01 -6.857988E-06  2.518895E-10  5.427743E-01                                                                                                                                                                                                                                                                                                                                                                                                                                                                                              
  3.750000E+02  1.250000E+02 -4.975000E+03  3.590733E-07 -2.158971E-11  2.713653E-15  3.590733E-07  2.027267E-09 -1.219589E-13  1.532925E-17  2.027267E-09  0.000000E+00  0.000000E+00  0.000000E+00  0.000000E+00  0.000000E+00  0.000000E+00  0.000000E+00  0.000000E+00  5.427847E-01 -2.026244E-05  2.703596E-09  5.427847E-01                                                                                                                                                                                                                                                                                                                                                                                                                                                                                              
  6.250000E+02  1.250000E+02 -4.975000E+03  3.590979E-07 -3.183160E-11 -5.644451E-16  3.590979E-07  2.027406E-09 -1.798147E-13 -3.188514E-18  2.027406E-09  0.000000E+00  0.000000E+00  0.000000E+00  0.000000E+00  0.000000E+00  0.000000E+00  0.000000E+00  0.000000E+00  5.428084E-01 -2.988002E-05 -7.352262E-10  5.428084E-01                                                                                                                                                                                                                                                                                                                                                                                                                                                                                              
  8.750000E+02  1.250000E+02 -4.975000E+03  3.591391E-07 -2.364527E-11 -2.054566E-15  3.591391E-07  2.027639E-09 -1.335706E-13 -1.160611E-17  2.027639E-09  0.000000E+00  0.000000E+00  0.000000E+00  0.000000E+00  0.000000E+00  0.000000E+00  0.000000E+00  0.000000E+00  5.428484E-01 -2.221317E-05 -1.679542E-09  5.428484E-01                                                                                                                                                                                                                                                                                                                                                                                                                                                                                              
  1.050000E+03  1.250000E+02 -4.975000E+03  3.591651E-07  3.712703E-15 -5.295768E-16  3.591651E-07  2.027786E-09  2.097282E-17 -2.991545E-18  2.027786E-09  0.000000E+00  0.000000E+00  0.000000E+00  0.000000E+00  0.000000E+00  0.000000E+00  0.000000E+00  0.000000E+00  5.428750E-01  3.525706E-09 -2.641641E-10  5.428750E-01                                                                                                                                                                                                                                                                                                                                                                                                                                                                                              
  1.225000E+03  1.250000E+02 -4.975000E+03  3.591391E-07  2.365428E-11 -9.463338E-16  3.591391E-07  2.027639E-09  1.336215E-13 -5.345779E-18  2.027639E-09  0.000000E+00  0.000000E+00  0.000000E+00  0.000000E+00  0.000000E+00  0.000000E+00  0.000000E+00  0.000000E+00  5.428484E-01  2.222165E-05 -7.823396E-10  5.428484E-01                                                                                                                                                                                                                                                                                                                                                                                                                                                                                              
  1.475000E+03  1.250000E+02 -4.975000E+03  3.590979E-07  3.183903E-11 -2.599978E-15  3.590979E-07  2.027406E-09  1.798567E-13 -1.468711E-17  2.027406E-09  0.000000E+00  0.000000E+00  0.000000E+00  0.000000E+00  0.000000E+00  0.000000E+00  0.000000E+00  0.000000E+00  5.428084E-01  2.988718E-05 -2.606585E-09  5.428084E-01                                                                                                                                                                                                                                                                                                                                                                                                                                                                                              
  1.725000E+03  1.250000E+02 -4.975000E+03  3.590733E-07  2.159185E-11 -1.651453E-15  3.590733E-07  2.027267E-09  1.219710E-13 -9.328953E-18  2.027267E-09  0.000000E+00  0.000000E+00  0.000000E+00  0.000000E+00  0.000000E+00  0.000000E+00  0.000000E+00  0.000000E+00  5.427847E-01  2.026464E-05 -1.753996E-09  5.427847E-01                                                                                                                                                                                                                                                                                                                                                                                                                                                                                              
  1.975000E+03  1.250000E+02 -4.975000E+03  3.590625E-07  7.307442E-12 -4.322532E-15  3.590625E-07  2.027206E-09  4.127927E-14 -2.441771E-17  2.027206E-09  0.000000E+00  0.000000E+00  0.000000E+00  0.000000E+00  0.000000E+00  0.000000E+00  0.000000E+00  0.000000E+00  5.427743E-01  6.857986E-06 -4.572946E-09  5.427743E-01                                                                                                                                                                                                                                                                                                                                                                                                                                                                                              
  1.250000E+02  1.250000E+02 -4.725000E+03  4.689889E-07 -2.236538E-12  3.413280E-15  4.689889E-07  2.623754E-09 -1.250392E-14  1.908278E-17  2.623754E-09  0.000000E+00  0.000000E+00  0.000000E+00  0.000000E+00  0.000000E+00  0.000000E+00  0.000000E+00  0.000000E+00  6.281914E-01 -2.003769E-06 -5.296290E-12  6.281914E-01                                                                                                                                                                                                                                                                                                                                                                                                                                                                                              
  3.750000E+02  1.250000E+02 -4.725000E+03  4.689984E-07 -6.365410E-12 -3.044944E-16  4.689984E-07  2.623808E-09 -3.558739E-14 -1.702351E-18  2.623808E-09  0.000000E+00  0.000000E+00  0.000000E+00  0.000000E+00  0.000000E+00  0.000000E+00  0.000000E+00  0.000000E+00  6.281999E-01 -5.698626E-06  3.672009E-10  6.281999E-01                                                                                                                                                                                                                                                                                                                                                                                                                                                                                              
  6.250000E+02  1.250000E+02 -4.725000E+03  4.690168E-07 -8.619379E-12 -1.908150E-15  4.690168E-07  2.623910E-09 -4.818876E-14 -1.066798E-17  2.623910E-09  0.000000E+00  0.000000E+00  0.000000E+00  0.000000E+00  0.000000E+00  0.000000E+00  0.000000E+00  0.000000E+00  6.282167E-01 -7.713342E-06 -8.663040E-10  6.282167E-01                                                                                                                                                                                                                                                                                                                                                                                                                                                                                              
  8.750000E+02  1.250000E+02 -4.725000E+03  4.690387E-07 -5.566088E-12 -1.419315E-15  4.690387E-07  2.624033E-09 -3.111858E-14 -7.935029E-18  2.624033E-09  0.000000E+00  0.000000E+00  0.000000E+00  0.000000E+00  0.000000E+00  0.000000E+00  0.000000E+00  0.000000E+00  6.282369E-01 -4.982451E-06 -1.290561E-10  6.282369E-01                                                                                                                                                                                                                                                                                                                                                                                                                                                                                              
  1.050000E+03  1.250000E+02 -4.725000E+03  4.690438E-07  3.344510E-15 -1.821571E-15  4.690438E-07  2.624061E-09  1.869830E-17 -1.018394E-17  2.624061E-09  0.000000E+00  0.000000E+00  0.000000E+00  0.000000E+00  0.000000E+00  0.000000E+00  0.000000E+00  0.000000E+00  6.282416E-01  2.151763E-09 -6.415133E-10  6.282416E-01                                                                                                                                                                                                                                                                                                                                                                                                                                                                                              
  1.225000E+03  1.250000E+02 -4.725000E+03  4.690388E-07  5.570107E-12 -2.134256E-15  4.690388E-07  2.624033E-09  3.114105E-14 -1.193208E-17  2.624033E-09  0.000000E+00  0.000000E+00  0.000000E+00  0.000000E+00  0.000000E+00  0.000000E+00  0.000000E+00  0.000000E+00  6.282369E-01  4.986067E-06 -1.281032E-09  6.282369E-01                                                                                                                                                                                                                                                                                                                                                                                                                                                                                              
  1.475000E+03  1.250000E+02 -4.725000E+03  4.690168E-07  8.621098E-12 -1.826202E-15  4.690168E-07  2.623910E-09  4.819837E-14 -1.020983E-17  2.623910E-09  0.000000E+00  0.000000E+00  0.000000E+00  0.000000E+00  0.000000E+00  0.000000E+00  0.000000E+00  0.000000E+00  6.282167E-01  7.715834E-06 -6.855467E-10  6.282167E-01                                                                                                                                                                                                                                                                                                                                                                                                                                                                                              
  1.725000E+03  1.250000E+02 -4.725000E+03  4.689984E-07  6.371634E-12 -2.437446E-15  4.689984E-07  2.623807E-09  3.562219E-14 -1.362714E-17  2.623807E-09  0.000000E+00  0.000000E+00  0.000000E+00  0.000000E+00  0.000000E+00  0.000000E+00  0.000000E+00  0.000000E+00  6.281999E-01  5.700151E-06 -1.328721E-09  6.281999E-01                                                                                                                                                                                                                                                                                                                                                                                                                                                                                              