Title="TOUGHREACT V3.30-OMP flowvector.tec: Liq & Gas Fluxes (kg/s/m^2), Pore Velocities (m/s), & Heat Fluxes (J/s/m2)"                                                                                                                                                                                                                                                                                                                                                                                                                                                                                                                                                                                                                                                                                                         
Variables= "X(m)"     "Y(m)"      "Z(m)"     "FluxLiq"   "FluxLiq_X"   "FluxLiq_Y"   "FluxLiq_Z"   "PorVelLiq"  "PorVelLiqX"  "PorVelLiqY"  "PorVelLiqZ"     "FluxGas"   "FluxGas_X"   "FluxGas_Y"   "FluxGas_Z"   "PorVelGas"  "PorVelGasX"  "PorVelGasY"  "PorVelGasZ"    "HeatFlux"  "HeatFlux_X"  "HeatFlux_Y"  "HeatFlux_Z"                                                                                                                                                                                                                                                                                                                                                                                                                                                                                                
Zone T= "3.15569000E+08 sec" I=     9 J=    10 K=    23 F=Point
  1.250000E+02  1.250000E+02 -5.425000E+03  5.496354E-08 -1.679008E-11  1.797523E-15  5.496354E-08  3.155119E-10 -9.678910E-14  1.036211E-17  3.155119E-10  0.000000E+00  0.000000E+00  0.000000E+00  0.000000E+00  0.000000E+00  0.000000E+00  0.000000E+00  0.000000E+00  1.548318E-01 -1.708463E-05  2.964640E-09  1.548318E-01                                                                                                                                                                                                                                                                                                                                                                                                                                                                                              
  3.750000E+02  1.250000E+02 -5.425000E+03  5.496758E-08 -5.785598E-11 -5.714598E-15  5.496755E-08  3.155351E-10 -3.335200E-13 -3.294271E-17  3.155349E-10  0.000000E+00  0.000000E+00  0.000000E+00  0.000000E+00  0.000000E+00  0.000000E+00  0.000000E+00  0.000000E+00  1.548359E-01 -5.887216E-05 -5.193436E-09  1.548359E-01                                                                                                                                                                                                                                                                                                                                                                                                                                                                                              
  6.250000E+02  1.250000E+02 -5.425000E+03  5.498193E-08 -1.311198E-10 -1.860437E-14  5.498177E-08  3.156174E-10 -7.558609E-13 -1.072479E-16  3.156165E-10  0.000000E+00  0.000000E+00  0.000000E+00  0.000000E+00  0.000000E+00  0.000000E+00  0.000000E+00  0.000000E+00  1.548504E-01 -1.347401E-04 -1.972020E-08  1.548503E-01                                                                                                                                                                                                                                                                                                                                                                                                                                                                                              
  8.750000E+02  1.250000E+02 -5.425000E+03  5.503667E-08 -2.986505E-10 -5.359659E-15  5.503586E-08  3.159316E-10 -1.721631E-12 -3.089660E-17  3.159270E-10  0.000000E+00  0.000000E+00  0.000000E+00  0.000000E+00  0.000000E+00  0.000000E+00  0.000000E+00  0.000000E+00  1.549081E-01 -5.688443E-04 -9.555055E-09  1.549070E-01                                                                                                                                                                                                                                                                                                                                                                                                                                                                                              
  1.050000E+03  1.250000E+02 -5.425000E+03  5.522186E-08  6.872943E-15 -9.369023E-15  5.522186E-08  3.169980E-10  3.962066E-17 -5.401041E-17  3.169980E-10  0.000000E+00  0.000000E+00  0.000000E+00  0.000000E+00  0.000000E+00  0.000000E+00  0.000000E+00  0.000000E+00  1.553298E-01  5.686802E-09 -4.694124E-09  1.553298E-01                                                                                                                                                                                                                                                                                                                                                                                                                                                                                              
  1.225000E+03  1.250000E+02 -5.425000E+03  5.503666E-08  2.986072E-10 -2.208542E-14  5.503585E-08  3.159316E-10  1.721381E-12 -1.273149E-16  3.159269E-10  0.000000E+00  0.000000E+00  0.000000E+00  0.000000E+00  0.000000E+00  0.000000E+00  0.000000E+00  0.000000E+00  1.549081E-01  5.687968E-04 -2.546025E-08  1.549070E-01                                                                                                                                                                                                                                                                                                                                                                                                                                                                                              
  1.475000E+03  1.250000E+02 -5.425000E+03  5.498197E-08  1.310950E-10 -1.098374E-14  5.498181E-08  3.156177E-10  7.557180E-13 -6.331750E-17  3.156168E-10  0.000000E+00  0.000000E+00  0.000000E+00  0.000000E+00  0.000000E+00  0.000000E+00  0.000000E+00  0.000000E+00  1.548504E-01  1.347204E-04 -4.606256E-09  1.548504E-01                                                                                                                                                                                                                                                                                                                                                                                                                                                                                              
  1.725000E+03  1.250000E+02 -5.425000E+03  5.496759E-08  5.791230E-11 -2.238379E-15  5.496756E-08  3.155352E-10  3.338447E-13 -1.290349E-17  3.155350E-10  0.000000E+00  0.000000E+00  0.000000E+00  0.000000E+00  0.000000E+00  0.000000E+00  0.000000E+00  0.000000E+00  1.548359E-01  5.893051E-05 -9.329465E-09  1.548359E-01                                                                                                                                                                                                                                                                                                                                                                                                                                                                                              
  1.975000E+03  1.250000E+02 -5.425000E+03  5.496352E-08  1.682103E-11 -1.112176E-14  5.496352E-08  3.155118E-10  9.696750E-14 -6.411317E-17  3.155118E-10  0.000000E+00  0.000000E+00  0.000000E+00  0.000000E+00  0.000000E+00  0.000000E+00  0.000000E+00  0.000000E+00  1.548318E-01  1.710961E-05 -1.296702E-08  1.548318E-01                                                                                                                                                                                                                                                                                                                                                                                                                                                                                              
  1.250000E+02  1.250000E+02 -5.225000E+03  2.000163E-07 -1.331481E-11 -1.934131E-16  2.000163E-07  1.139735E-09 -7.604701E-14 -1.104672E-18  1.139735E-09  0.000000E+00  0.000000E+00  0.000000E+00  0.000000E+00  0.000000E+00  0.000000E+00  0.000000E+00  0.000000E+00  3.970380E-01 -1.308181E-05 -8.123662E-10  3.970380E-01                                                                                                                                                                                                                                                                                                                                                                                                                                                                                              
  3.750000E+02  1.250000E+02 -5.225000E+03  2.000261E-07 -4.243269E-11 -2.684044E-16  2.000261E-07  1.139791E-09 -2.423527E-13 -1.532982E-18  1.139791E-09  0.000000E+00  0.000000E+00  0.000000E+00  0.000000E+00  0.000000E+00  0.000000E+00  0.000000E+00  0.000000E+00  3.970479E-01 -4.169074E-05  1.554065E-10  3.970478E-01                                                                                                                                                                                                                                                                                                                                                                                                                                                                                              
  6.250000E+02  1.250000E+02 -5.225000E+03  2.000548E-07 -7.529511E-11 -3.140420E-15  2.000548E-07  1.139955E-09 -4.300451E-13 -1.793639E-17  1.139955E-09  0.000000E+00  0.000000E+00  0.000000E+00  0.000000E+00  0.000000E+00  0.000000E+00  0.000000E+00  0.000000E+00  3.970766E-01 -7.400388E-05 -3.003248E-09  3.970765E-01                                                                                                                                                                                                                                                                                                                                                                                                                                                                                              
  8.750000E+02  1.250000E+02 -5.225000E+03  2.001372E-07 -8.405780E-11 -2.247497E-15  2.001372E-07  1.140426E-09 -4.800929E-13 -1.283649E-17  1.140426E-09  0.000000E+00  0.000000E+00  0.000000E+00  0.000000E+00  0.000000E+00  0.000000E+00  0.000000E+00  0.000000E+00  3.971610E-01 -8.435240E-05 -8.700283E-10  3.971610E-01                                                                                                                                                                                                                                                                                                                                                                                                                                                                                              
  1.050000E+03  1.250000E+02 -5.225000E+03  2.003457E-07 -2.996289E-15 -3.873636E-15  2.003457E-07  1.141625E-09 -1.711322E-17 -2.212412E-17  1.141625E-09  0.000000E+00  0.000000E+00  0.000000E+00  0.000000E+00  0.000000E+00  0.000000E+00  0.000000E+00  0.000000E+00  3.976072E-01  8.865580E-10 -2.983179E-09  3.976072E-01                                                                                                                                                                                                                                                                                                                                                                                                                                                                                              
  1.225000E+03  1.250000E+02 -5.225000E+03  2.001372E-07  8.404633E-11 -4.757325E-15  2.001371E-07  1.140426E-09  4.800274E-13 -2.717128E-17  1.140426E-09  0.000000E+00  0.000000E+00  0.000000E+00  0.000000E+00  0.000000E+00  0.000000E+00  0.000000E+00  0.000000E+00  3.971610E-01  8.434157E-05 -6.568778E-09  3.971610E-01                                                                                                                                                                                                                                                                                                                                                                                                                                                                                              
  1.475000E+03  1.250000E+02 -5.225000E+03  2.000549E-07  7.528900E-11 -1.886662E-15  2.000549E-07  1.139955E-09  4.300103E-13 -1.077560E-17  1.139955E-09  0.000000E+00  0.000000E+00  0.000000E+00  0.000000E+00  0.000000E+00  0.000000E+00  0.000000E+00  0.000000E+00  3.970766E-01  7.399459E-05 -2.231189E-09  3.970766E-01                                                                                                                                                                                                                                                                                                                                                                                                                                                                                              
  1.725000E+03  1.250000E+02 -5.225000E+03  2.000262E-07  4.243614E-11 -6.262147E-15  2.000261E-07  1.139791E-09  2.423724E-13 -3.576602E-17  1.139791E-09  0.000000E+00  0.000000E+00  0.000000E+00  0.000000E+00  0.000000E+00  0.000000E+00  0.000000E+00  0.000000E+00  3.970479E-01  4.169471E-05 -5.822749E-09  3.970479E-01                                                                                                                                                                                                                                                                                                                                                                                                                                                                                              
  1.975000E+03  1.250000E+02 -5.225000E+03  2.000163E-07  1.331588E-11 -1.713937E-15  2.000163E-07  1.139735E-09  7.605316E-14 -9.789087E-18  1.139735E-09  0.000000E+00  0.000000E+00  0.000000E+00  0.000000E+00  0.000000E+00  0.000000E+00  0.000000E+00  0.000000E+00  3.970380E-01  1.308334E-05 -9.793645E-10  3.970380E-01                                                                                                                                                                                                                                                                                                                                                                                                                                                                                              
  1.250000E+02  1.250000E+02 -4.975000E+03  3.590564E-07 -7.303433E-12  2.871804E-16  3.590564E-07  2.027172E-09 -4.125663E-14  1.622264E-18  2.027172E-09  0.000000E+00  0.000000E+00  0.000000E+00  0.000000E+00  0.000000E+00  0.000000E+00  0.000000E+00  0.000000E+00  5.427686E-01 -6.854125E-06 -4.758042E-11  5.427686E-01                                                                                                                                                                                                                                                                                                                                                                                                                                                                                              
  3.750000E+02  1.250000E+02 -4.975000E+03  3.590673E-07 -2.158987E-11  4.670465E-16  3.590673E-07  2.027233E-09 -1.219598E-13  2.638316E-18  2.027233E-09  0.000000E+00  0.000000E+00  0.000000E+00  0.000000E+00  0.000000E+00  0.000000E+00  0.000000E+00  0.000000E+00  5.427790E-01 -2.026272E-05  4.736010E-10  5.427790E-01                                                                                                                                                                                                                                                                                                                                                                                                                                                                                              
  6.250000E+02  1.250000E+02 -4.975000E+03  3.590918E-07 -3.183868E-11  1.609110E-15  3.590918E-07  2.027371E-09 -1.798547E-13  9.089757E-18  2.027371E-09  0.000000E+00  0.000000E+00  0.000000E+00  0.000000E+00  0.000000E+00  0.000000E+00  0.000000E+00  0.000000E+00  5.428027E-01 -2.988645E-05  1.672891E-09  5.428027E-01                                                                                                                                                                                                                                                                                                                                                                                                                                                                                              
  8.750000E+02  1.250000E+02 -4.975000E+03  3.591330E-07 -2.364877E-11  1.189970E-15  3.591330E-07  2.027605E-09 -1.335904E-13  6.722062E-18  2.027605E-09  0.000000E+00  0.000000E+00  0.000000E+00  0.000000E+00  0.000000E+00  0.000000E+00  0.000000E+00  0.000000E+00  5.428426E-01 -2.221666E-05  8.910778E-10  5.428426E-01                                                                                                                                                                                                                                                                                                                                                                                                                                                                                              
  1.050000E+03  1.250000E+02 -4.975000E+03  3.591590E-07 -7.141936E-16  4.769333E-16  3.591590E-07  2.027752E-09 -4.034433E-18  2.694166E-18  2.027752E-09  0.000000E+00  0.000000E+00  0.000000E+00  0.000000E+00  0.000000E+00  0.000000E+00  0.000000E+00  0.000000E+00  5.428693E-01 -1.028733E-09  6.896796E-10  5.428693E-01                                                                                                                                                                                                                                                                                                                                                                                                                                                                                              
  1.225000E+03  1.250000E+02 -4.975000E+03  3.591330E-07  2.364893E-11  2.833659E-16  3.591330E-07  2.027605E-09  1.335913E-13  1.600716E-18  2.027605E-09  0.000000E+00  0.000000E+00  0.000000E+00  0.000000E+00  0.000000E+00  0.000000E+00  0.000000E+00  0.000000E+00  5.428426E-01  2.221708E-05  1.717300E-10  5.428426E-01                                                                                                                                                                                                                                                                                                                                                                                                                                                                                              
  1.475000E+03  1.250000E+02 -4.975000E+03  3.590918E-07  3.183485E-11 -4.380681E-16  3.590918E-07  2.027372E-09  1.798330E-13 -2.474618E-18  2.027372E-09  0.000000E+00  0.000000E+00  0.000000E+00  0.000000E+00  0.000000E+00  0.000000E+00  0.000000E+00  0.000000E+00  5.428027E-01  2.988304E-05 -7.989450E-10  5.428027E-01                                                                                                                                                                                                                                                                                                                                                                                                                                                                                              
  1.725000E+03  1.250000E+02 -4.975000E+03  3.590673E-07  2.158706E-11 -7.156402E-16  3.590673E-07  2.027233E-09  1.219439E-13 -4.042606E-18  2.027233E-09  0.000000E+00  0.000000E+00  0.000000E+00  0.000000E+00  0.000000E+00  0.000000E+00  0.000000E+00  0.000000E+00  5.427790E-01  2.025960E-05 -6.347523E-10  5.427790E-01                                                                                                                                                                                                                                                                                                                                                                                                                                                                                              
  1.975000E+03  1.250000E+02 -4.975000E+03  3.590564E-07  7.305323E-12 -1.013217E-15  3.590564E-07  2.027172E-09  4.126730E-14 -5.723597E-18  2.027172E-09  0.000000E+00  0.000000E+00  0.000000E+00  0.000000E+00  0.000000E+00  0.000000E+00  0.000000E+00  0.000000E+00  5.427686E-01  6.855854E-06 -8.705228E-10  5.427686E-01                                                                                                                                                                                                                                                                                                                                                                                                                                                                                              
  1.250000E+02  1.250000E+02 -4.725000E+03  4.689693E-07 -2.238777E-12  3.807587E-15  4.689693E-07  2.623645E-09 -1.251643E-14  2.128725E-17  2.623645E-09  0.000000E+00  0.000000E+00  0.000000E+00  0.000000E+00  0.000000E+00  0.000000E+00  0.000000E+00  0.000000E+00  6.281737E-01 -2.003613E-06  7.515566E-10  6.281737E-01                                                                                                                                                                                                                                                                                                                                                                                                                                                                                              
  3.750000E+02  1.250000E+02 -4.725000E+03  4.689788E-07 -6.368264E-12  3.881902E-15  4.689788E-07  2.623698E-09 -3.560334E-14  2.170273E-17  2.623698E-09  0.000000E+00  0.000000E+00  0.000000E+00  0.000000E+00  0.000000E+00  0.000000E+00  0.000000E+00  0.000000E+00  6.281824E-01 -5.698894E-06  2.470159E-10  6.281824E-01                                                                                                                                                                                                                                                                                                                                                                                                                                                                                              
  6.250000E+02  1.250000E+02 -4.725000E+03  4.689972E-07 -8.620865E-12  4.011748E-15  4.689972E-07  2.623801E-09 -4.819707E-14  2.242866E-17  2.623801E-09  0.000000E+00  0.000000E+00  0.000000E+00  0.000000E+00  0.000000E+00  0.000000E+00  0.000000E+00  0.000000E+00  6.281992E-01 -7.714701E-06  2.878589E-10  6.281992E-01                                                                                                                                                                                                                                                                                                                                                                                                                                                                                              
  8.750000E+02  1.250000E+02 -4.725000E+03  4.690192E-07 -5.567695E-12  4.201772E-15  4.690192E-07  2.623924E-09 -3.112757E-14  2.349104E-17  2.623924E-09  0.000000E+00  0.000000E+00  0.000000E+00  0.000000E+00  0.000000E+00  0.000000E+00  0.000000E+00  0.000000E+00  6.282194E-01 -4.983729E-06  7.977280E-10  6.282194E-01                                                                                                                                                                                                                                                                                                                                                                                                                                                                                              
  1.050000E+03  1.250000E+02 -4.725000E+03  4.690242E-07  1.926699E-15  3.629499E-15  4.690242E-07  2.623952E-09  1.077168E-17  2.029161E-17  2.623952E-09  0.000000E+00  0.000000E+00  0.000000E+00  0.000000E+00  0.000000E+00  0.000000E+00  0.000000E+00  0.000000E+00  6.282241E-01  3.265568E-10  3.343135E-10  6.282241E-01                                                                                                                                                                                                                                                                                                                                                                                                                                                                                              
  1.225000E+03  1.250000E+02 -4.725000E+03  4.690192E-07  5.570886E-12  3.324874E-15  4.690192E-07  2.623924E-09  3.114541E-14  1.858853E-17  2.623924E-09  0.000000E+00  0.000000E+00  0.000000E+00  0.000000E+00  0.000000E+00  0.000000E+00  0.000000E+00  0.000000E+00  6.282194E-01  4.984706E-06  1.051144E-09  6.282194E-01                                                                                                                                                                                                                                                                                                                                                                                                                                                                                              
  1.475000E+03  1.250000E+02 -4.725000E+03  4.689972E-07  8.618372E-12  1.644825E-15  4.689972E-07  2.623801E-09  4.818313E-14  9.195798E-18  2.623801E-09  0.000000E+00  0.000000E+00  0.000000E+00  0.000000E+00  0.000000E+00  0.000000E+00  0.000000E+00  0.000000E+00  6.281990E-01  7.715304E-06  6.857084E-10  6.281990E-01                                                                                                                                                                                                                                                                                                                                                                                                                                                                                              
  1.725000E+03  1.250000E+02 -4.725000E+03  4.689788E-07  6.368828E-12  5.971271E-15  4.689788E-07  2.623698E-09  3.560650E-14  3.338386E-17  2.623698E-09  0.000000E+00  0.000000E+00  0.000000E+00  0.000000E+00  0.000000E+00  0.000000E+00  0.000000E+00  0.000000E+00  6.281825E-01  5.697390E-06 -6.595389E-10  6.281825E-01                                                                                                                                                                                                                                                                                                                                                                                                                                                                                              