Title="TOUGHREACT V3.30-OMP flowvector.tec: Liq & Gas Fluxes (kg/s/m^2), Pore Velocities (m/s), & Heat Fluxes (J/s/m2)"                                                                                                                                                                                                                                                                                                                                                                                                                                                                                                                                                                                                                                                                                                         
Variables= "X(m)"     "Y(m)"      "Z(m)"     "FluxLiq"   "FluxLiq_X"   "FluxLiq_Y"   "FluxLiq_Z"   "PorVelLiq"  "PorVelLiqX"  "PorVelLiqY"  "PorVelLiqZ"     "FluxGas"   "FluxGas_X"   "FluxGas_Y"   "FluxGas_Z"   "PorVelGas"  "PorVelGasX"  "PorVelGasY"  "PorVelGasZ"    "HeatFlux"  "HeatFlux_X"  "HeatFlux_Y"  "HeatFlux_Z"                                                                                                                                                                                                                                                                                                                                                                                                                                                                                                
Zone T= "1.00000000E+11 sec" I=     9 J=    10 K=    23 F=Point
  1.250000E+02  1.250000E+02 -5.425000E+03  6.185560E-10  5.997159E-11 -1.546646E-15 -6.156419E-10  3.570241E-12  3.474083E-13 -8.959439E-18 -3.553298E-12  0.000000E+00  0.000000E+00  0.000000E+00  0.000000E+00  0.000000E+00  0.000000E+00  0.000000E+00  0.000000E+00  6.689868E-02 -1.167892E-04 -4.687327E-10  6.689858E-02                                                                                                                                                                                                                                                                                                                                                                                                                                                                                              
  3.750000E+02  1.250000E+02 -5.425000E+03  6.418360E-10  1.821184E-10 -1.082714E-15 -6.154562E-10  3.705651E-12  1.055018E-12 -6.272097E-18 -3.552293E-12  0.000000E+00  0.000000E+00  0.000000E+00  0.000000E+00  0.000000E+00  0.000000E+00  0.000000E+00  0.000000E+00  6.694677E-02 -4.577083E-04 -2.249293E-10  6.694520E-02                                                                                                                                                                                                                                                                                                                                                                                                                                                                                              
  6.250000E+02  1.250000E+02 -5.425000E+03  6.720404E-10  2.926850E-10  1.111410E-15 -6.049577E-10  3.881792E-12  1.695647E-12  6.438691E-18 -3.491861E-12  0.000000E+00  0.000000E+00  0.000000E+00  0.000000E+00  0.000000E+00  0.000000E+00  0.000000E+00  0.000000E+00  6.714283E-02 -1.260599E-03  3.158983E-09  6.713100E-02                                                                                                                                                                                                                                                                                                                                                                                                                                                                                              
  8.750000E+02  1.250000E+02 -5.425000E+03  6.024792E-10  2.762826E-10  1.063802E-15 -5.353962E-10  3.480611E-12  1.600800E-12  6.163686E-18 -3.090646E-12  0.000000E+00  0.000000E+00  0.000000E+00  0.000000E+00  0.000000E+00  0.000000E+00  0.000000E+00  0.000000E+00  6.799456E-02 -3.724115E-03  5.628014E-10  6.789249E-02                                                                                                                                                                                                                                                                                                                                                                                                                                                                                              
  1.050000E+03  1.250000E+02 -5.425000E+03  2.572429E-10  7.484002E-15  1.923101E-15 -2.572429E-10  1.485179E-12  4.336781E-17  1.114520E-17 -1.485179E-12  0.000000E+00  0.000000E+00  0.000000E+00  0.000000E+00  0.000000E+00  0.000000E+00  0.000000E+00  0.000000E+00  7.034451E-02  5.605873E-09  2.268286E-09  7.034451E-02                                                                                                                                                                                                                                                                                                                                                                                                                                                                                              
  1.225000E+03  1.250000E+02 -5.425000E+03  6.024767E-10 -2.762763E-10 -2.164247E-15 -5.353967E-10  3.480597E-12 -1.600764E-12 -1.253969E-17 -3.090649E-12  0.000000E+00  0.000000E+00  0.000000E+00  0.000000E+00  0.000000E+00  0.000000E+00  0.000000E+00  0.000000E+00  6.799456E-02  3.724120E-03 -1.881697E-09  6.789249E-02                                                                                                                                                                                                                                                                                                                                                                                                                                                                                              
  1.475000E+03  1.250000E+02 -5.425000E+03  6.720419E-10 -2.926904E-10 -2.724842E-15 -6.049567E-10  3.881801E-12 -1.695679E-12 -1.578572E-17 -3.491855E-12  0.000000E+00  0.000000E+00  0.000000E+00  0.000000E+00  0.000000E+00  0.000000E+00  0.000000E+00  0.000000E+00  6.714283E-02  1.260593E-03 -1.592679E-09  6.713100E-02                                                                                                                                                                                                                                                                                                                                                                                                                                                                                              
  1.725000E+03  1.250000E+02 -5.425000E+03  6.418391E-10 -1.821226E-10  1.190008E-15 -6.154582E-10  3.705669E-12 -1.055042E-12  6.893645E-18 -3.552305E-12  0.000000E+00  0.000000E+00  0.000000E+00  0.000000E+00  0.000000E+00  0.000000E+00  0.000000E+00  0.000000E+00  6.694677E-02  4.577044E-04  1.239907E-09  6.694520E-02                                                                                                                                                                                                                                                                                                                                                                                                                                                                                              
  1.975000E+03  1.250000E+02 -5.425000E+03  6.185548E-10 -5.997159E-11  1.057512E-16 -6.156407E-10  3.570234E-12 -3.474083E-13  6.125974E-19 -3.553291E-12  0.000000E+00  0.000000E+00  0.000000E+00  0.000000E+00  0.000000E+00  0.000000E+00  0.000000E+00  0.000000E+00  6.689868E-02  1.167899E-04 -1.198982E-09  6.689857E-02                                                                                                                                                                                                                                                                                                                                                                                                                                                                                              
  1.250000E+02  1.250000E+02 -5.225000E+03  2.122253E-09  1.615045E-11 -1.227351E-15 -2.122192E-09  1.218199E-11  9.297065E-14 -7.065232E-18 -1.218164E-11  0.000000E+00  0.000000E+00  0.000000E+00  0.000000E+00  0.000000E+00  0.000000E+00  0.000000E+00  0.000000E+00  1.444990E-01 -1.231824E-04  1.584283E-09  1.444989E-01                                                                                                                                                                                                                                                                                                                                                                                                                                                                                              
  3.750000E+02  1.250000E+02 -5.225000E+03  2.109178E-09  3.775738E-11 -1.879459E-15 -2.108840E-09  1.210729E-11  2.173551E-13 -1.081926E-17 -1.210534E-11  0.000000E+00  0.000000E+00  0.000000E+00  0.000000E+00  0.000000E+00  0.000000E+00  0.000000E+00  0.000000E+00  1.446189E-01 -4.230998E-04 -1.179264E-09  1.446182E-01                                                                                                                                                                                                                                                                                                                                                                                                                                                                                              
  6.250000E+02  1.250000E+02 -5.225000E+03  2.058978E-09  2.310540E-11 -3.058571E-16 -2.058849E-09  1.181970E-11  1.330111E-13 -1.760758E-18 -1.181895E-11  0.000000E+00  0.000000E+00  0.000000E+00  0.000000E+00  0.000000E+00  0.000000E+00  0.000000E+00  0.000000E+00  1.450045E-01 -8.305083E-04  9.501519E-10  1.450021E-01                                                                                                                                                                                                                                                                                                                                                                                                                                                                                              
  8.750000E+02  1.250000E+02 -5.225000E+03  1.901347E-09 -3.311141E-11  1.399081E-15 -1.901059E-09  1.091441E-11 -1.906312E-13  8.054730E-18 -1.091275E-11  0.000000E+00  0.000000E+00  0.000000E+00  0.000000E+00  0.000000E+00  0.000000E+00  0.000000E+00  0.000000E+00  1.461789E-01 -9.760470E-04  1.305742E-09  1.461756E-01                                                                                                                                                                                                                                                                                                                                                                                                                                                                                              
  1.050000E+03  1.250000E+02 -5.225000E+03  1.553669E-09  6.619726E-15 -2.890568E-16 -1.553669E-09  8.910866E-12  3.811144E-17 -1.664202E-18 -8.910866E-12  0.000000E+00  0.000000E+00  0.000000E+00  0.000000E+00  0.000000E+00  0.000000E+00  0.000000E+00  0.000000E+00  1.489331E-01  6.726012E-09 -1.825347E-09  1.489331E-01                                                                                                                                                                                                                                                                                                                                                                                                                                                                                              
  1.225000E+03  1.250000E+02 -5.225000E+03  1.901350E-09  3.311781E-11 -9.378001E-16 -1.901061E-09  1.091443E-11  1.906680E-13 -5.399064E-18 -1.091276E-11  0.000000E+00  0.000000E+00  0.000000E+00  0.000000E+00  0.000000E+00  0.000000E+00  0.000000E+00  0.000000E+00  1.461789E-01  9.760520E-04 -9.448692E-10  1.461756E-01                                                                                                                                                                                                                                                                                                                                                                                                                                                                                              
  1.475000E+03  1.250000E+02 -5.225000E+03  2.058980E-09 -2.311213E-11 -4.445609E-15 -2.058850E-09  1.181971E-11 -1.330499E-13 -2.559248E-17 -1.181896E-11  0.000000E+00  0.000000E+00  0.000000E+00  0.000000E+00  0.000000E+00  0.000000E+00  0.000000E+00  0.000000E+00  1.450045E-01  8.305011E-04 -3.990080E-09  1.450021E-01                                                                                                                                                                                                                                                                                                                                                                                                                                                                                              
  1.725000E+03  1.250000E+02 -5.225000E+03  2.109179E-09 -3.776155E-11  9.990019E-16 -2.108841E-09  1.210729E-11 -2.173792E-13  5.750837E-18 -1.210534E-11  0.000000E+00  0.000000E+00  0.000000E+00  0.000000E+00  0.000000E+00  0.000000E+00  0.000000E+00  0.000000E+00  1.446189E-01  4.230942E-04  4.051201E-10  1.446182E-01                                                                                                                                                                                                                                                                                                                                                                                                                                                                                              
  1.975000E+03  1.250000E+02 -5.225000E+03  2.122250E-09 -1.614810E-11 -4.514774E-16 -2.122189E-09  1.218198E-11 -9.295713E-14 -2.598925E-18 -1.218162E-11  0.000000E+00  0.000000E+00  0.000000E+00  0.000000E+00  0.000000E+00  0.000000E+00  0.000000E+00  0.000000E+00  1.444990E-01  1.231823E-04  2.412807E-10  1.444989E-01                                                                                                                                                                                                                                                                                                                                                                                                                                                                                              
  1.250000E+02  1.250000E+02 -4.975000E+03  3.653655E-09 -6.765572E-12  1.016542E-15 -3.653649E-09  2.081139E-11 -3.859724E-14  5.799296E-18 -2.081136E-11  0.000000E+00  0.000000E+00  0.000000E+00  0.000000E+00  0.000000E+00  0.000000E+00  0.000000E+00  0.000000E+00  1.634821E-01 -8.443705E-05  1.027933E-09  1.634821E-01                                                                                                                                                                                                                                                                                                                                                                                                                                                                                              
  3.750000E+02  1.250000E+02 -4.975000E+03  3.620789E-09 -2.518738E-11  4.178944E-16 -3.620702E-09  2.062440E-11 -1.436941E-13  2.384077E-18 -2.062390E-11  0.000000E+00  0.000000E+00  0.000000E+00  0.000000E+00  0.000000E+00  0.000000E+00  0.000000E+00  0.000000E+00  1.636138E-01 -2.605887E-04  7.886673E-10  1.636135E-01                                                                                                                                                                                                                                                                                                                                                                                                                                                                                              
  6.250000E+02  1.250000E+02 -4.975000E+03  3.538286E-09 -4.967097E-11  8.509333E-16 -3.537937E-09  2.015456E-11 -2.833777E-13  4.854640E-18 -2.015256E-11  0.000000E+00  0.000000E+00  0.000000E+00  0.000000E+00  0.000000E+00  0.000000E+00  0.000000E+00  0.000000E+00  1.639410E-01 -4.067793E-04  1.096809E-09  1.639405E-01                                                                                                                                                                                                                                                                                                                                                                                                                                                                                              
  8.750000E+02  1.250000E+02 -4.975000E+03  3.389711E-09 -4.532279E-11  2.018614E-15 -3.389408E-09  1.930732E-11 -2.585740E-13  1.151661E-17 -1.930559E-11  0.000000E+00  0.000000E+00  0.000000E+00  0.000000E+00  0.000000E+00  0.000000E+00  0.000000E+00  0.000000E+00  1.645343E-01 -3.110772E-04  1.810254E-09  1.645340E-01                                                                                                                                                                                                                                                                                                                                                                                                                                                                                              
  1.050000E+03  1.250000E+02 -4.975000E+03  3.303883E-09  3.228789E-15  1.038006E-15 -3.303883E-09  1.881678E-11  1.842096E-17  5.922073E-18 -1.881678E-11  0.000000E+00  0.000000E+00  0.000000E+00  0.000000E+00  0.000000E+00  0.000000E+00  0.000000E+00  0.000000E+00  1.648896E-01  3.156581E-09  7.168968E-10  1.648896E-01                                                                                                                                                                                                                                                                                                                                                                                                                                                                                              
  1.225000E+03  1.250000E+02 -4.975000E+03  3.389714E-09  4.532523E-11  1.644725E-16 -3.389411E-09  1.930734E-11  2.585880E-13  9.383499E-19 -1.930561E-11  0.000000E+00  0.000000E+00  0.000000E+00  0.000000E+00  0.000000E+00  0.000000E+00  0.000000E+00  0.000000E+00  1.645343E-01  3.110783E-04  5.491819E-10  1.645340E-01                                                                                                                                                                                                                                                                                                                                                                                                                                                                                              
  1.475000E+03  1.250000E+02 -4.975000E+03  3.538289E-09  4.966804E-11 -9.578119E-16 -3.537940E-09  2.015457E-11  2.833610E-13 -5.464391E-18 -2.015258E-11  0.000000E+00  0.000000E+00  0.000000E+00  0.000000E+00  0.000000E+00  0.000000E+00  0.000000E+00  0.000000E+00  1.639410E-01  4.067753E-04 -1.215215E-09  1.639405E-01                                                                                                                                                                                                                                                                                                                                                                                                                                                                                              
  1.725000E+03  1.250000E+02 -4.975000E+03  3.620785E-09  2.518710E-11 -1.106627E-16 -3.620698E-09  2.062438E-11  1.436925E-13 -6.313280E-19 -2.062388E-11  0.000000E+00  0.000000E+00  0.000000E+00  0.000000E+00  0.000000E+00  0.000000E+00  0.000000E+00  0.000000E+00  1.636138E-01  2.605858E-04 -8.826104E-10  1.636135E-01                                                                                                                                                                                                                                                                                                                                                                                                                                                                                              
  1.975000E+03  1.250000E+02 -4.975000E+03  3.653652E-09  6.767447E-12  4.668407E-16 -3.653646E-09  2.081138E-11  3.860793E-14  2.663290E-18 -2.081134E-11  0.000000E+00  0.000000E+00  0.000000E+00  0.000000E+00  0.000000E+00  0.000000E+00  0.000000E+00  0.000000E+00  1.634821E-01  8.443595E-05  6.943321E-11  1.634821E-01                                                                                                                                                                                                                                                                                                                                                                                                                                                                                              
  1.250000E+02  1.250000E+02 -4.725000E+03  4.691813E-09 -4.778407E-12  3.916947E-17 -4.691810E-09  2.650487E-11 -2.699762E-14  2.213040E-19 -2.650486E-11  0.000000E+00  0.000000E+00  0.000000E+00  0.000000E+00  0.000000E+00  0.000000E+00  0.000000E+00  0.000000E+00  1.772627E-01 -4.113411E-05 -8.516166E-10  1.772627E-01                                                                                                                                                                                                                                                                                                                                                                                                                                                                                              
  3.750000E+02  1.250000E+02 -4.725000E+03  4.650498E-09 -1.500008E-11  5.541616E-16 -4.650474E-09  2.627157E-11 -8.474959E-14  3.130976E-18 -2.627143E-11  0.000000E+00  0.000000E+00  0.000000E+00  0.000000E+00  0.000000E+00  0.000000E+00  0.000000E+00  0.000000E+00  1.773618E-01 -1.187815E-04  7.036705E-12  1.773618E-01                                                                                                                                                                                                                                                                                                                                                                                                                                                                                              
  6.250000E+02  1.250000E+02 -4.725000E+03  4.564878E-09 -2.333877E-11 -9.352790E-16 -4.564818E-09  2.578792E-11 -1.318636E-13 -5.284304E-18 -2.578759E-11  0.000000E+00  0.000000E+00  0.000000E+00  0.000000E+00  0.000000E+00  0.000000E+00  0.000000E+00  0.000000E+00  1.775696E-01 -1.628852E-04 -1.705488E-09  1.775695E-01                                                                                                                                                                                                                                                                                                                                                                                                                                                                                              
  8.750000E+02  1.250000E+02 -4.725000E+03  4.455385E-09 -1.664843E-11  6.512020E-16 -4.455354E-09  2.516917E-11 -9.406372E-14  3.679305E-18 -2.516899E-11  0.000000E+00  0.000000E+00  0.000000E+00  0.000000E+00  0.000000E+00  0.000000E+00  0.000000E+00  0.000000E+00  1.778425E-01 -1.048221E-04  3.422914E-10  1.778425E-01                                                                                                                                                                                                                                                                                                                                                                                                                                                                                              
  1.050000E+03  1.250000E+02 -4.725000E+03  4.430677E-09  1.116237E-15  4.715177E-16 -4.430677E-09  2.502940E-11  6.306768E-18  2.664088E-18 -2.502940E-11  0.000000E+00  0.000000E+00  0.000000E+00  0.000000E+00  0.000000E+00  0.000000E+00  0.000000E+00  0.000000E+00  1.779084E-01 -1.547254E-09  5.784200E-11  1.779084E-01                                                                                                                                                                                                                                                                                                                                                                                                                                                                                              
  1.225000E+03  1.250000E+02 -4.725000E+03  4.455387E-09  1.664929E-11 -2.400317E-16 -4.455356E-09  2.516918E-11  9.406856E-14 -1.356184E-18 -2.516900E-11  0.000000E+00  0.000000E+00  0.000000E+00  0.000000E+00  0.000000E+00  0.000000E+00  0.000000E+00  0.000000E+00  1.778425E-01  1.048198E-04  7.879280E-11  1.778425E-01                                                                                                                                                                                                                                                                                                                                                                                                                                                                                              
  1.475000E+03  1.250000E+02 -4.725000E+03  4.564878E-09  2.333916E-11 -4.342507E-16 -4.564818E-09  2.578793E-11  1.318658E-13 -2.453506E-18 -2.578759E-11  0.000000E+00  0.000000E+00  0.000000E+00  0.000000E+00  0.000000E+00  0.000000E+00  0.000000E+00  0.000000E+00  1.775696E-01  1.628849E-04 -1.327204E-09  1.775695E-01                                                                                                                                                                                                                                                                                                                                                                                                                                                                                              
  1.725000E+03  1.250000E+02 -4.725000E+03  4.650497E-09  1.500021E-11 -1.283885E-15 -4.650473E-09  2.627156E-11  8.475032E-14 -7.253865E-18 -2.627142E-11  0.000000E+00  0.000000E+00  0.000000E+00  0.000000E+00  0.000000E+00  0.000000E+00  0.000000E+00  0.000000E+00  1.773618E-01  1.187801E-04 -1.551949E-09  1.773618E-01                                                                                                                                                                                                                                                                                                                                                                                                                                                                                              