Title="TOUGHREACT V3.30-OMP flowvector.tec: Liq & Gas Fluxes (kg/s/m^2), Pore Velocities (m/s), & Heat Fluxes (J/s/m2)"                                                                                                                                                                                                                                                                                                                                                                                                                                                                                                                                                                                                                                                                                                         
Variables= "X(m)"     "Y(m)"      "Z(m)"     "FluxLiq"   "FluxLiq_X"   "FluxLiq_Y"   "FluxLiq_Z"   "PorVelLiq"  "PorVelLiqX"  "PorVelLiqY"  "PorVelLiqZ"     "FluxGas"   "FluxGas_X"   "FluxGas_Y"   "FluxGas_Z"   "PorVelGas"  "PorVelGasX"  "PorVelGasY"  "PorVelGasZ"    "HeatFlux"  "HeatFlux_X"  "HeatFlux_Y"  "HeatFlux_Z"                                                                                                                                                                                                                                                                                                                                                                                                                                                                                                
Zone T= "1.00000000E+10 sec" I=     9 J=    10 K=    23 F=Point
  1.250000E+02  1.250000E+02 -5.425000E+03  4.473459E-10 -2.539788E-10  2.181226E-10 -2.967081E-10  2.572558E-12 -1.463436E-12  1.256834E-12 -1.701993E-12  0.000000E+00  0.000000E+00  0.000000E+00  0.000000E+00  0.000000E+00  0.000000E+00  0.000000E+00  0.000000E+00  8.600679E-02 -2.295298E-04  2.137521E-04  8.600622E-02                                                                                                                                                                                                                                                                                                                                                                                                                                                                                              
  3.750000E+02  1.250000E+02 -5.425000E+03  7.378319E-10 -5.703419E-10  2.116694E-10 -4.174951E-10  4.245320E-12 -3.286332E-12  1.219646E-12 -2.394834E-12  0.000000E+00  0.000000E+00  0.000000E+00  0.000000E+00  0.000000E+00  0.000000E+00  0.000000E+00  0.000000E+00  8.604216E-02 -5.664702E-04  2.084783E-04  8.604004E-02                                                                                                                                                                                                                                                                                                                                                                                                                                                                                              
  6.250000E+02  1.250000E+02 -5.425000E+03  7.623845E-10 -5.293005E-10  2.044441E-10 -5.091893E-10  4.384122E-12 -3.049877E-12  1.178016E-12 -2.920797E-12  0.000000E+00  0.000000E+00  0.000000E+00  0.000000E+00  0.000000E+00  0.000000E+00  0.000000E+00  0.000000E+00  8.608835E-02 -9.316205E-04  2.014311E-04  8.608307E-02                                                                                                                                                                                                                                                                                                                                                                                                                                                                                              
  8.750000E+02  1.250000E+02 -5.425000E+03  5.982299E-10 -1.909789E-10  2.008599E-10 -5.301522E-10  3.434963E-12 -1.100435E-12  1.157416E-12 -3.041118E-12  0.000000E+00  0.000000E+00  0.000000E+00  0.000000E+00  0.000000E+00  0.000000E+00  0.000000E+00  0.000000E+00  8.656152E-02 -3.229337E-03  1.966603E-04  8.650104E-02                                                                                                                                                                                                                                                                                                                                                                                                                                                                                              
  1.050000E+03  1.250000E+02 -5.425000E+03  3.431381E-10  8.847169E-15  2.007192E-10 -2.783084E-10  1.971713E-12  5.098584E-17  1.156861E-12 -1.596660E-12  0.000000E+00  0.000000E+00  0.000000E+00  0.000000E+00  0.000000E+00  0.000000E+00  0.000000E+00  0.000000E+00  8.883524E-02  4.204355E-09  1.962090E-04  8.883503E-02                                                                                                                                                                                                                                                                                                                                                                                                                                                                                              
  1.225000E+03  1.250000E+02 -5.425000E+03  5.982277E-10  1.909651E-10  2.008387E-10 -5.301627E-10  3.434950E-12  1.100356E-12  1.157294E-12 -3.041179E-12  0.000000E+00  0.000000E+00  0.000000E+00  0.000000E+00  0.000000E+00  0.000000E+00  0.000000E+00  0.000000E+00  8.656151E-02  3.229329E-03  1.966394E-04  8.650103E-02                                                                                                                                                                                                                                                                                                                                                                                                                                                                                              
  1.475000E+03  1.250000E+02 -5.425000E+03  7.623752E-10  5.292914E-10  2.044547E-10 -5.091806E-10  4.384069E-12  3.049824E-12  1.178077E-12 -2.920747E-12  0.000000E+00  0.000000E+00  0.000000E+00  0.000000E+00  0.000000E+00  0.000000E+00  0.000000E+00  0.000000E+00  8.608834E-02  9.316093E-04  2.014313E-04  8.608307E-02                                                                                                                                                                                                                                                                                                                                                                                                                                                                                              
  1.725000E+03  1.250000E+02 -5.425000E+03  7.378347E-10  5.703427E-10  2.116601E-10 -4.175036E-10  4.245335E-12  3.286336E-12  1.219592E-12 -2.394882E-12  0.000000E+00  0.000000E+00  0.000000E+00  0.000000E+00  0.000000E+00  0.000000E+00  0.000000E+00  0.000000E+00  8.604215E-02  5.664613E-04  2.084737E-04  8.604004E-02                                                                                                                                                                                                                                                                                                                                                                                                                                                                                              
  1.975000E+03  1.250000E+02 -5.425000E+03  4.473264E-10  2.539662E-10  2.181114E-10 -2.966977E-10  2.572446E-12  1.463363E-12  1.256770E-12 -1.701933E-12  0.000000E+00  0.000000E+00  0.000000E+00  0.000000E+00  0.000000E+00  0.000000E+00  0.000000E+00  0.000000E+00  8.600680E-02  2.295200E-04  2.137398E-04  8.600623E-02                                                                                                                                                                                                                                                                                                                                                                                                                                                                                              
  1.250000E+02  1.250000E+02 -5.225000E+03  5.563732E-10 -3.242299E-10  2.294692E-10 -3.895767E-10  3.181714E-12 -1.853310E-12  1.311667E-12 -2.228918E-12  0.000000E+00  0.000000E+00  0.000000E+00  0.000000E+00  0.000000E+00  0.000000E+00  0.000000E+00  0.000000E+00  2.088833E-01 -1.694546E-04  2.034633E-04  2.088832E-01                                                                                                                                                                                                                                                                                                                                                                                                                                                                                              
  3.750000E+02  1.250000E+02 -5.225000E+03  1.213207E-09 -7.006840E-10  2.207650E-10 -9.654929E-10  6.922831E-12 -4.005105E-12  1.261891E-12 -5.503849E-12  0.000000E+00  0.000000E+00  0.000000E+00  0.000000E+00  0.000000E+00  0.000000E+00  0.000000E+00  0.000000E+00  2.097212E-01 -4.495643E-04  2.005987E-04  2.097207E-01                                                                                                                                                                                                                                                                                                                                                                                                                                                                                              
  6.250000E+02  1.250000E+02 -5.225000E+03  1.503604E-09 -6.591250E-10  2.126604E-10 -1.334599E-09  8.572287E-12 -3.767524E-12  1.215553E-12 -7.603440E-12  0.000000E+00  0.000000E+00  0.000000E+00  0.000000E+00  0.000000E+00  0.000000E+00  0.000000E+00  0.000000E+00  2.102742E-01 -5.844937E-04  1.933667E-04  2.102733E-01                                                                                                                                                                                                                                                                                                                                                                                                                                                                                              
  8.750000E+02  1.250000E+02 -5.225000E+03  1.529448E-09 -3.708138E-10  2.107927E-10 -1.468766E-09  8.713896E-12 -2.119554E-12  1.204881E-12 -8.365868E-12  0.000000E+00  0.000000E+00  0.000000E+00  0.000000E+00  0.000000E+00  0.000000E+00  0.000000E+00  0.000000E+00  2.110441E-01 -6.529394E-04  1.847802E-04  2.110431E-01                                                                                                                                                                                                                                                                                                                                                                                                                                                                                              
  1.050000E+03  1.250000E+02 -5.225000E+03  1.207462E-09 -4.740944E-15  2.114227E-10 -1.188808E-09  6.869101E-12 -2.709914E-17  1.208508E-12 -6.761957E-12  0.000000E+00  0.000000E+00  0.000000E+00  0.000000E+00  0.000000E+00  0.000000E+00  0.000000E+00  0.000000E+00  2.136488E-01 -1.016971E-08  1.822533E-04  2.136487E-01                                                                                                                                                                                                                                                                                                                                                                                                                                                                                              
  1.225000E+03  1.250000E+02 -5.225000E+03  1.529452E-09  3.708038E-10  2.107901E-10 -1.468773E-09  8.713920E-12  2.119497E-12  1.204866E-12 -8.365909E-12  0.000000E+00  0.000000E+00  0.000000E+00  0.000000E+00  0.000000E+00  0.000000E+00  0.000000E+00  0.000000E+00  2.110441E-01  6.529250E-04  1.847826E-04  2.110430E-01                                                                                                                                                                                                                                                                                                                                                                                                                                                                                              
  1.475000E+03  1.250000E+02 -5.225000E+03  1.503574E-09  6.591175E-10  2.126644E-10 -1.334569E-09  8.572121E-12  3.767481E-12  1.215576E-12 -7.603270E-12  0.000000E+00  0.000000E+00  0.000000E+00  0.000000E+00  0.000000E+00  0.000000E+00  0.000000E+00  0.000000E+00  2.102742E-01  5.844880E-04  1.933784E-04  2.102733E-01                                                                                                                                                                                                                                                                                                                                                                                                                                                                                              
  1.725000E+03  1.250000E+02 -5.225000E+03  1.213217E-09  7.006846E-10  2.207614E-10 -9.655056E-10  6.922887E-12  4.005109E-12  1.261870E-12 -5.503921E-12  0.000000E+00  0.000000E+00  0.000000E+00  0.000000E+00  0.000000E+00  0.000000E+00  0.000000E+00  0.000000E+00  2.097212E-01  4.495635E-04  2.005977E-04  2.097206E-01                                                                                                                                                                                                                                                                                                                                                                                                                                                                                              
  1.975000E+03  1.250000E+02 -5.225000E+03  5.563569E-10  3.242328E-10  2.294678E-10 -3.895519E-10  3.181622E-12  1.853327E-12  1.311659E-12 -2.228777E-12  0.000000E+00  0.000000E+00  0.000000E+00  0.000000E+00  0.000000E+00  0.000000E+00  0.000000E+00  0.000000E+00  2.088834E-01  1.694552E-04  2.034682E-04  2.088832E-01                                                                                                                                                                                                                                                                                                                                                                                                                                                                                              
  1.250000E+02  1.250000E+02 -4.975000E+03  8.490292E-09 -5.359280E-10  2.586427E-10 -8.469413E-09  4.719171E-11 -3.021293E-12  1.458225E-12 -4.707231E-11  0.000000E+00  0.000000E+00  0.000000E+00  0.000000E+00  0.000000E+00  0.000000E+00  0.000000E+00  0.000000E+00  3.913554E-01  8.714370E-04  1.957094E-06  3.913544E-01                                                                                                                                                                                                                                                                                                                                                                                                                                                                                              
  3.750000E+02  1.250000E+02 -4.975000E+03  1.035239E-08 -1.033531E-09  2.422835E-10 -1.029782E-08  5.756940E-11 -5.826182E-12  1.365782E-12 -5.725754E-11  0.000000E+00  0.000000E+00  0.000000E+00  0.000000E+00  0.000000E+00  0.000000E+00  0.000000E+00  0.000000E+00  3.988181E-01  1.262247E-03  3.348035E-05  3.988161E-01                                                                                                                                                                                                                                                                                                                                                                                                                                                                                              
  6.250000E+02  1.250000E+02 -4.975000E+03  1.129764E-08 -8.235328E-10  2.327388E-10 -1.126518E-08  6.283111E-11 -4.641962E-12  1.311853E-12 -6.264566E-11  0.000000E+00  0.000000E+00  0.000000E+00  0.000000E+00  0.000000E+00  0.000000E+00  0.000000E+00  0.000000E+00  4.032314E-01  5.167300E-04  3.418328E-05  4.032311E-01                                                                                                                                                                                                                                                                                                                                                                                                                                                                                              
  8.750000E+02  1.250000E+02 -4.975000E+03  1.173435E-08 -3.993123E-10  2.402861E-10 -1.172509E-08  6.525640E-11 -2.250674E-12  1.354335E-12 -6.520351E-11  0.000000E+00  0.000000E+00  0.000000E+00  0.000000E+00  0.000000E+00  0.000000E+00  0.000000E+00  0.000000E+00  4.056324E-01  1.473865E-04 -1.432041E-05  4.056324E-01                                                                                                                                                                                                                                                                                                                                                                                                                                                                                              
  1.050000E+03  1.250000E+02 -4.975000E+03  1.180896E-08 -4.263659E-15  2.467370E-10 -1.180638E-08  6.566400E-11 -2.403066E-17  1.390687E-12 -6.564927E-11  0.000000E+00  0.000000E+00  0.000000E+00  0.000000E+00  0.000000E+00  0.000000E+00  0.000000E+00  0.000000E+00  4.064188E-01 -2.756578E-08 -4.528090E-05  4.064188E-01                                                                                                                                                                                                                                                                                                                                                                                                                                                                                              
  1.225000E+03  1.250000E+02 -4.975000E+03  1.173432E-08  3.993245E-10  2.402576E-10 -1.172506E-08  6.525621E-11  2.250742E-12  1.354174E-12 -6.520332E-11  0.000000E+00  0.000000E+00  0.000000E+00  0.000000E+00  0.000000E+00  0.000000E+00  0.000000E+00  0.000000E+00  4.056324E-01 -1.473775E-04 -1.432862E-05  4.056323E-01                                                                                                                                                                                                                                                                                                                                                                                                                                                                                              
  1.475000E+03  1.250000E+02 -4.975000E+03  1.129767E-08  8.235187E-10  2.327167E-10 -1.126521E-08  6.283128E-11  4.641882E-12  1.311729E-12 -6.264585E-11  0.000000E+00  0.000000E+00  0.000000E+00  0.000000E+00  0.000000E+00  0.000000E+00  0.000000E+00  0.000000E+00  4.032315E-01 -5.167397E-04  3.413913E-05  4.032312E-01                                                                                                                                                                                                                                                                                                                                                                                                                                                                                              
  1.725000E+03  1.250000E+02 -4.975000E+03  1.035241E-08  1.033521E-09  2.422659E-10 -1.029784E-08  5.756949E-11  5.826128E-12  1.365683E-12 -5.725764E-11  0.000000E+00  0.000000E+00  0.000000E+00  0.000000E+00  0.000000E+00  0.000000E+00  0.000000E+00  0.000000E+00  3.988181E-01 -1.262277E-03  3.347442E-05  3.988161E-01                                                                                                                                                                                                                                                                                                                                                                                                                                                                                              
  1.975000E+03  1.250000E+02 -4.975000E+03  8.490308E-09  5.359488E-10  2.586158E-10 -8.469428E-09  4.719179E-11  3.021410E-12  1.458073E-12 -4.707240E-11  0.000000E+00  0.000000E+00  0.000000E+00  0.000000E+00  0.000000E+00  0.000000E+00  0.000000E+00  0.000000E+00  3.913553E-01 -8.714202E-04  1.950492E-06  3.913544E-01                                                                                                                                                                                                                                                                                                                                                                                                                                                                                              
  1.250000E+02  1.250000E+02 -4.725000E+03  4.559290E-08 -5.672958E-10  1.961770E-10 -4.558894E-08  2.460373E-10 -3.107439E-12  1.075161E-12 -2.460153E-10  0.000000E+00  0.000000E+00  0.000000E+00  0.000000E+00  0.000000E+00  0.000000E+00  0.000000E+00  0.000000E+00  9.827299E-01  8.609934E-03 -1.948401E-03  9.826902E-01                                                                                                                                                                                                                                                                                                                                                                                                                                                                                              
  3.750000E+02  1.250000E+02 -4.725000E+03  4.967910E-08 -9.535351E-10  1.733080E-10 -4.966965E-08  2.678510E-10 -5.221632E-12  9.489733E-13 -2.677984E-10  0.000000E+00  0.000000E+00  0.000000E+00  0.000000E+00  0.000000E+00  0.000000E+00  0.000000E+00  0.000000E+00  1.018349E+00  1.356954E-02 -1.676814E-03  1.018258E+00                                                                                                                                                                                                                                                                                                                                                                                                                                                                                              
  6.250000E+02  1.250000E+02 -4.725000E+03  5.159825E-08 -6.400443E-10  1.731787E-10 -5.159399E-08  2.780743E-10 -3.502923E-12  9.477744E-13 -2.780506E-10  0.000000E+00  0.000000E+00  0.000000E+00  0.000000E+00  0.000000E+00  0.000000E+00  0.000000E+00  0.000000E+00  1.034096E+00  7.488984E-03 -1.555120E-03  1.034068E+00                                                                                                                                                                                                                                                                                                                                                                                                                                                                                              
  8.750000E+02  1.250000E+02 -4.725000E+03  5.265569E-08 -3.520102E-10  2.065929E-10 -5.265411E-08  2.837001E-10 -1.925985E-12  1.130360E-12 -2.836913E-10  0.000000E+00  0.000000E+00  0.000000E+00  0.000000E+00  0.000000E+00  0.000000E+00  0.000000E+00  0.000000E+00  1.042552E+00  3.393155E-03 -1.802318E-03  1.042545E+00                                                                                                                                                                                                                                                                                                                                                                                                                                                                                              
  1.050000E+03  1.250000E+02 -4.725000E+03  5.326769E-08  2.185539E-14  2.356216E-10 -5.326717E-08  2.869544E-10  1.195671E-16  1.289130E-12 -2.869515E-10  0.000000E+00  0.000000E+00  0.000000E+00  0.000000E+00  0.000000E+00  0.000000E+00  0.000000E+00  0.000000E+00  1.047129E+00 -9.656274E-08 -2.147126E-03  1.047127E+00                                                                                                                                                                                                                                                                                                                                                                                                                                                                                              
  1.225000E+03  1.250000E+02 -4.725000E+03  5.265568E-08  3.519811E-10  2.066191E-10 -5.265410E-08  2.837000E-10  1.925826E-12  1.130503E-12 -2.836912E-10  0.000000E+00  0.000000E+00  0.000000E+00  0.000000E+00  0.000000E+00  0.000000E+00  0.000000E+00  0.000000E+00  1.042552E+00 -3.393148E-03 -1.802222E-03  1.042545E+00                                                                                                                                                                                                                                                                                                                                                                                                                                                                                              
  1.475000E+03  1.250000E+02 -4.725000E+03  5.159826E-08  6.400003E-10  1.732698E-10 -5.159400E-08  2.780743E-10  3.502682E-12  9.482730E-13 -2.780507E-10  0.000000E+00  0.000000E+00  0.000000E+00  0.000000E+00  0.000000E+00  0.000000E+00  0.000000E+00  0.000000E+00  1.034096E+00 -7.488918E-03 -1.555138E-03  1.034068E+00                                                                                                                                                                                                                                                                                                                                                                                                                                                                                              
  1.725000E+03  1.250000E+02 -4.725000E+03  4.967908E-08  9.535395E-10  1.733011E-10 -4.966962E-08  2.678508E-10  5.221655E-12  9.489353E-13 -2.677982E-10  0.000000E+00  0.000000E+00  0.000000E+00  0.000000E+00  0.000000E+00  0.000000E+00  0.000000E+00  0.000000E+00  1.018349E+00 -1.356962E-02 -1.676843E-03  1.018258E+00                                                                                                                                                                                                                                                                                                                                                                                                                                                                                              