Title="TOUGHREACT V3.30-OMP flowvector.tec: Liq & Gas Fluxes (kg/s/m^2), Pore Velocities (m/s), & Heat Fluxes (J/s/m2)"                                                                                                                                                                                                                                                                                                                                                                                                                                                                                                                                                                                                                                                                                                         
Variables= "X(m)"     "Y(m)"      "Z(m)"     "FluxLiq"   "FluxLiq_X"   "FluxLiq_Y"   "FluxLiq_Z"   "PorVelLiq"  "PorVelLiqX"  "PorVelLiqY"  "PorVelLiqZ"     "FluxGas"   "FluxGas_X"   "FluxGas_Y"   "FluxGas_Z"   "PorVelGas"  "PorVelGasX"  "PorVelGasY"  "PorVelGasZ"    "HeatFlux"  "HeatFlux_X"  "HeatFlux_Y"  "HeatFlux_Z"                                                                                                                                                                                                                                                                                                                                                                                                                                                                                                
Zone T= "1.00000000E+09 sec" I=     9 J=    10 K=    23 F=Point
  1.250000E+02  1.250000E+02 -5.425000E+03  1.887472E-08 -1.927480E-10  1.374218E-10  1.887324E-08  1.082569E-10 -1.110019E-12  7.914004E-13  1.082483E-10  0.000000E+00  0.000000E+00  0.000000E+00  0.000000E+00  0.000000E+00  0.000000E+00  0.000000E+00  0.000000E+00  1.159268E-01 -1.916225E-04  1.366341E-04  1.159265E-01                                                                                                                                                                                                                                                                                                                                                                                                                                                                                              
  3.750000E+02  1.250000E+02 -5.425000E+03  1.880098E-08 -4.534516E-10  1.367657E-10  1.879502E-08  1.078341E-10 -2.611387E-12  7.876215E-13  1.077996E-10  0.000000E+00  0.000000E+00  0.000000E+00  0.000000E+00  0.000000E+00  0.000000E+00  0.000000E+00  0.000000E+00  1.158509E-01 -4.509399E-04  1.359854E-04  1.158500E-01                                                                                                                                                                                                                                                                                                                                                                                                                                                                                              
  6.250000E+02  1.250000E+02 -5.425000E+03  1.874409E-08 -5.009471E-10  1.386494E-10  1.873688E-08  1.075078E-10 -2.884908E-12  7.984689E-13  1.074661E-10  0.000000E+00  0.000000E+00  0.000000E+00  0.000000E+00  0.000000E+00  0.000000E+00  0.000000E+00  0.000000E+00  1.157941E-01 -5.099449E-04  1.378591E-04  1.157929E-01                                                                                                                                                                                                                                                                                                                                                                                                                                                                                              
  8.750000E+02  1.250000E+02 -5.425000E+03  1.874732E-08 -4.206150E-10  1.422235E-10  1.874206E-08  1.075262E-10 -2.422315E-12  8.190526E-13  1.074958E-10  0.000000E+00  0.000000E+00  0.000000E+00  0.000000E+00  0.000000E+00  0.000000E+00  0.000000E+00  0.000000E+00  1.158189E-01 -1.179850E-03  1.414128E-04  1.158128E-01                                                                                                                                                                                                                                                                                                                                                                                                                                                                                              
  1.050000E+03  1.250000E+02 -5.425000E+03  1.893029E-08 -8.922271E-18  1.428251E-10  1.892975E-08  1.085788E-10 -5.139678E-20  8.225684E-13  1.085756E-10  0.000000E+00  0.000000E+00  0.000000E+00  0.000000E+00  0.000000E+00  0.000000E+00  0.000000E+00  0.000000E+00  1.166475E-01  2.752653E-10  1.420429E-04  1.166474E-01                                                                                                                                                                                                                                                                                                                                                                                                                                                                                              
  1.225000E+03  1.250000E+02 -5.425000E+03  1.874732E-08  4.206151E-10  1.422235E-10  1.874206E-08  1.075262E-10  2.422316E-12  8.190524E-13  1.074958E-10  0.000000E+00  0.000000E+00  0.000000E+00  0.000000E+00  0.000000E+00  0.000000E+00  0.000000E+00  0.000000E+00  1.158189E-01  1.179849E-03  1.414129E-04  1.158128E-01                                                                                                                                                                                                                                                                                                                                                                                                                                                                                              
  1.475000E+03  1.250000E+02 -5.425000E+03  1.874409E-08  5.009472E-10  1.386493E-10  1.873688E-08  1.075078E-10  2.884909E-12  7.984684E-13  1.074661E-10  0.000000E+00  0.000000E+00  0.000000E+00  0.000000E+00  0.000000E+00  0.000000E+00  0.000000E+00  0.000000E+00  1.157941E-01  5.099445E-04  1.378597E-04  1.157929E-01                                                                                                                                                                                                                                                                                                                                                                                                                                                                                              
  1.725000E+03  1.250000E+02 -5.425000E+03  1.880098E-08  4.534515E-10  1.367657E-10  1.879502E-08  1.078341E-10  2.611386E-12  7.876215E-13  1.077996E-10  0.000000E+00  0.000000E+00  0.000000E+00  0.000000E+00  0.000000E+00  0.000000E+00  0.000000E+00  0.000000E+00  1.158509E-01  4.509409E-04  1.359852E-04  1.158500E-01                                                                                                                                                                                                                                                                                                                                                                                                                                                                                              
  1.975000E+03  1.250000E+02 -5.425000E+03  1.887472E-08  1.927479E-10  1.374219E-10  1.887324E-08  1.082569E-10  1.110018E-12  7.914011E-13  1.082483E-10  0.000000E+00  0.000000E+00  0.000000E+00  0.000000E+00  0.000000E+00  0.000000E+00  0.000000E+00  0.000000E+00  1.159268E-01  1.916232E-04  1.366333E-04  1.159265E-01                                                                                                                                                                                                                                                                                                                                                                                                                                                                                              
  1.250000E+02  1.250000E+02 -5.225000E+03  7.145621E-08 -2.495190E-10  1.371792E-10  7.145565E-08  4.068377E-10 -1.424069E-12  7.829179E-13  4.068344E-10  0.000000E+00  0.000000E+00  0.000000E+00  0.000000E+00  0.000000E+00  0.000000E+00  0.000000E+00  0.000000E+00  2.661575E-01 -2.385076E-04  1.318109E-04  2.661573E-01                                                                                                                                                                                                                                                                                                                                                                                                                                                                                              
  3.750000E+02  1.250000E+02 -5.225000E+03  7.109078E-08 -5.499574E-10  1.358616E-10  7.108852E-08  4.047565E-10 -3.138748E-12  7.753974E-13  4.047436E-10  0.000000E+00  0.000000E+00  0.000000E+00  0.000000E+00  0.000000E+00  0.000000E+00  0.000000E+00  0.000000E+00  2.658820E-01 -5.264054E-04  1.307105E-04  2.658814E-01                                                                                                                                                                                                                                                                                                                                                                                                                                                                                              
  6.250000E+02  1.250000E+02 -5.225000E+03  7.084181E-08 -5.331772E-10  1.398129E-10  7.083966E-08  4.033385E-10 -3.042977E-12  7.979476E-13  4.033263E-10  0.000000E+00  0.000000E+00  0.000000E+00  0.000000E+00  0.000000E+00  0.000000E+00  0.000000E+00  0.000000E+00  2.656725E-01 -5.113312E-04  1.345770E-04  2.656720E-01                                                                                                                                                                                                                                                                                                                                                                                                                                                                                              
  8.750000E+02  1.250000E+02 -5.225000E+03  7.075044E-08 -3.085064E-10  1.475932E-10  7.074961E-08  4.028194E-10 -1.760723E-12  8.423510E-13  4.028147E-10  0.000000E+00  0.000000E+00  0.000000E+00  0.000000E+00  0.000000E+00  0.000000E+00  0.000000E+00  0.000000E+00  2.656202E-01 -3.103401E-04  1.419636E-04  2.656200E-01                                                                                                                                                                                                                                                                                                                                                                                                                                                                                              
  1.050000E+03  1.250000E+02 -5.225000E+03  7.094460E-08  5.875855E-17  1.491812E-10  7.094444E-08  4.039360E-10  3.353496E-19  8.514151E-13  4.039351E-10  0.000000E+00  0.000000E+00  0.000000E+00  0.000000E+00  0.000000E+00  0.000000E+00  0.000000E+00  0.000000E+00  2.664734E-01  6.797485E-11  1.434741E-04  2.664734E-01                                                                                                                                                                                                                                                                                                                                                                                                                                                                                              
  1.225000E+03  1.250000E+02 -5.225000E+03  7.075044E-08  3.085064E-10  1.475932E-10  7.074961E-08  4.028194E-10  1.760723E-12  8.423510E-13  4.028147E-10  0.000000E+00  0.000000E+00  0.000000E+00  0.000000E+00  0.000000E+00  0.000000E+00  0.000000E+00  0.000000E+00  2.656202E-01  3.103402E-04  1.419637E-04  2.656200E-01                                                                                                                                                                                                                                                                                                                                                                                                                                                                                              
  1.475000E+03  1.250000E+02 -5.225000E+03  7.084181E-08  5.331772E-10  1.398129E-10  7.083966E-08  4.033385E-10  3.042977E-12  7.979475E-13  4.033263E-10  0.000000E+00  0.000000E+00  0.000000E+00  0.000000E+00  0.000000E+00  0.000000E+00  0.000000E+00  0.000000E+00  2.656725E-01  5.113311E-04  1.345770E-04  2.656720E-01                                                                                                                                                                                                                                                                                                                                                                                                                                                                                              
  1.725000E+03  1.250000E+02 -5.225000E+03  7.109078E-08  5.499574E-10  1.358616E-10  7.108852E-08  4.047565E-10  3.138748E-12  7.753972E-13  4.047436E-10  0.000000E+00  0.000000E+00  0.000000E+00  0.000000E+00  0.000000E+00  0.000000E+00  0.000000E+00  0.000000E+00  2.658820E-01  5.264054E-04  1.307105E-04  2.658814E-01                                                                                                                                                                                                                                                                                                                                                                                                                                                                                              
  1.975000E+03  1.250000E+02 -5.225000E+03  7.145621E-08  2.495190E-10  1.371792E-10  7.145565E-08  4.068377E-10  1.424070E-12  7.829178E-13  4.068344E-10  0.000000E+00  0.000000E+00  0.000000E+00  0.000000E+00  0.000000E+00  0.000000E+00  0.000000E+00  0.000000E+00  2.661575E-01  2.385076E-04  1.318109E-04  2.661573E-01                                                                                                                                                                                                                                                                                                                                                                                                                                                                                              
  1.250000E+02  1.250000E+02 -4.975000E+03  1.291916E-07 -5.085591E-10  1.437079E-10  1.291906E-07  7.283781E-10 -2.870533E-12  8.111549E-13  7.283720E-10  0.000000E+00  0.000000E+00  0.000000E+00  0.000000E+00  0.000000E+00  0.000000E+00  0.000000E+00  0.000000E+00  3.423879E-01 -3.867444E-04  1.420389E-04  3.423877E-01                                                                                                                                                                                                                                                                                                                                                                                                                                                                                              
  3.750000E+02  1.250000E+02 -4.975000E+03  1.277854E-07 -9.792257E-10  1.369521E-10  1.277816E-07  7.203732E-10 -5.527163E-12  7.730138E-13  7.203516E-10  0.000000E+00  0.000000E+00  0.000000E+00  0.000000E+00  0.000000E+00  0.000000E+00  0.000000E+00  0.000000E+00  3.450427E-01 -7.866165E-04  1.478984E-04  3.450417E-01                                                                                                                                                                                                                                                                                                                                                                                                                                                                                              
  6.250000E+02  1.250000E+02 -4.975000E+03  1.271678E-07 -7.853511E-10  1.489460E-10  1.271653E-07  7.168627E-10 -4.432828E-12  8.407079E-13  7.168485E-10  0.000000E+00  0.000000E+00  0.000000E+00  0.000000E+00  0.000000E+00  0.000000E+00  0.000000E+00  0.000000E+00  3.458136E-01 -6.685455E-04  1.629835E-04  3.458129E-01                                                                                                                                                                                                                                                                                                                                                                                                                                                                                              
  8.750000E+02  1.250000E+02 -4.975000E+03  1.267989E-07 -3.804880E-10  1.785497E-10  1.267982E-07  7.147674E-10 -2.147618E-12  1.007800E-12  7.147635E-10  0.000000E+00  0.000000E+00  0.000000E+00  0.000000E+00  0.000000E+00  0.000000E+00  0.000000E+00  0.000000E+00  3.462711E-01 -3.263394E-04  1.834537E-04  3.462709E-01                                                                                                                                                                                                                                                                                                                                                                                                                                                                                              
  1.050000E+03  1.250000E+02 -4.975000E+03  1.267150E-07  4.073811E-17  1.888426E-10  1.267149E-07  7.142944E-10  2.299410E-19  1.065896E-12  7.142936E-10  0.000000E+00  0.000000E+00  0.000000E+00  0.000000E+00  0.000000E+00  0.000000E+00  0.000000E+00  0.000000E+00  3.463248E-01  3.689574E-11  1.910161E-04  3.463247E-01                                                                                                                                                                                                                                                                                                                                                                                                                                                                                              
  1.225000E+03  1.250000E+02 -4.975000E+03  1.267989E-07  3.804881E-10  1.785497E-10  1.267982E-07  7.147674E-10  2.147618E-12  1.007800E-12  7.147635E-10  0.000000E+00  0.000000E+00  0.000000E+00  0.000000E+00  0.000000E+00  0.000000E+00  0.000000E+00  0.000000E+00  3.462711E-01  3.263394E-04  1.834537E-04  3.462709E-01                                                                                                                                                                                                                                                                                                                                                                                                                                                                                              
  1.475000E+03  1.250000E+02 -4.975000E+03  1.271678E-07  7.853511E-10  1.489460E-10  1.271653E-07  7.168627E-10  4.432829E-12  8.407079E-13  7.168485E-10  0.000000E+00  0.000000E+00  0.000000E+00  0.000000E+00  0.000000E+00  0.000000E+00  0.000000E+00  0.000000E+00  3.458136E-01  6.685456E-04  1.629835E-04  3.458129E-01                                                                                                                                                                                                                                                                                                                                                                                                                                                                                              
  1.725000E+03  1.250000E+02 -4.975000E+03  1.277854E-07  9.792258E-10  1.369521E-10  1.277816E-07  7.203732E-10  5.527164E-12  7.730138E-13  7.203516E-10  0.000000E+00  0.000000E+00  0.000000E+00  0.000000E+00  0.000000E+00  0.000000E+00  0.000000E+00  0.000000E+00  3.450427E-01  7.866166E-04  1.478984E-04  3.450417E-01                                                                                                                                                                                                                                                                                                                                                                                                                                                                                              
  1.975000E+03  1.250000E+02 -4.975000E+03  1.291916E-07  5.085592E-10  1.437078E-10  1.291906E-07  7.283781E-10  2.870533E-12  8.111545E-13  7.283720E-10  0.000000E+00  0.000000E+00  0.000000E+00  0.000000E+00  0.000000E+00  0.000000E+00  0.000000E+00  0.000000E+00  3.423879E-01  3.867444E-04  1.420389E-04  3.423877E-01                                                                                                                                                                                                                                                                                                                                                                                                                                                                                              
  1.250000E+02  1.250000E+02 -4.725000E+03  1.019726E-07 -9.746185E-10  1.870121E-10  1.019678E-07  5.665266E-10 -5.429560E-12  1.042032E-12  5.664996E-10  0.000000E+00  0.000000E+00  0.000000E+00  0.000000E+00  0.000000E+00  0.000000E+00  0.000000E+00  0.000000E+00  1.224069E+00  3.121534E-03  5.129871E-04  1.224065E+00                                                                                                                                                                                                                                                                                                                                                                                                                                                                                              
  3.750000E+02  1.250000E+02 -4.725000E+03  9.568334E-08 -1.632865E-09  1.798162E-10  9.566923E-08  5.320933E-10 -9.095570E-12  1.001489E-12  5.320146E-10  0.000000E+00  0.000000E+00  0.000000E+00  0.000000E+00  0.000000E+00  0.000000E+00  0.000000E+00  0.000000E+00  1.271819E+00  3.900705E-03  9.520727E-04  1.271813E+00                                                                                                                                                                                                                                                                                                                                                                                                                                                                                              
  6.250000E+02  1.250000E+02 -4.725000E+03  9.312890E-08 -1.100730E-09  2.088102E-10  9.312216E-08  5.181386E-10 -6.130076E-12  1.162800E-12  5.181010E-10  0.000000E+00  0.000000E+00  0.000000E+00  0.000000E+00  0.000000E+00  0.000000E+00  0.000000E+00  0.000000E+00  1.295205E+00  1.197554E-03  1.028679E-03  1.295204E+00                                                                                                                                                                                                                                                                                                                                                                                                                                                                                              
  8.750000E+02  1.250000E+02 -4.725000E+03  9.179514E-08 -6.036539E-10  2.968746E-10  9.179268E-08  5.108503E-10 -3.361532E-12  1.653090E-12  5.108366E-10  0.000000E+00  0.000000E+00  0.000000E+00  0.000000E+00  0.000000E+00  0.000000E+00  0.000000E+00  0.000000E+00  1.305438E+00  4.508896E-04  7.871801E-04  1.305437E+00                                                                                                                                                                                                                                                                                                                                                                                                                                                                                              
  1.050000E+03  1.250000E+02 -4.725000E+03  9.070242E-08  3.586351E-17  3.724239E-10  9.070165E-08  5.049396E-10  1.997169E-19  2.073766E-12  5.049353E-10  0.000000E+00  0.000000E+00  0.000000E+00  0.000000E+00  0.000000E+00  0.000000E+00  0.000000E+00  0.000000E+00  1.309580E+00 -3.568327E-10  6.638740E-04  1.309580E+00                                                                                                                                                                                                                                                                                                                                                                                                                                                                                              
  1.225000E+03  1.250000E+02 -4.725000E+03  9.179514E-08  6.036540E-10  2.968746E-10  9.179268E-08  5.108503E-10  3.361532E-12  1.653090E-12  5.108366E-10  0.000000E+00  0.000000E+00  0.000000E+00  0.000000E+00  0.000000E+00  0.000000E+00  0.000000E+00  0.000000E+00  1.305438E+00 -4.508901E-04  7.871809E-04  1.305437E+00                                                                                                                                                                                                                                                                                                                                                                                                                                                                                              
  1.475000E+03  1.250000E+02 -4.725000E+03  9.312890E-08  1.100730E-09  2.088102E-10  9.312216E-08  5.181386E-10  6.130076E-12  1.162800E-12  5.181010E-10  0.000000E+00  0.000000E+00  0.000000E+00  0.000000E+00  0.000000E+00  0.000000E+00  0.000000E+00  0.000000E+00  1.295205E+00 -1.197554E-03  1.028679E-03  1.295204E+00                                                                                                                                                                                                                                                                                                                                                                                                                                                                                              
  1.725000E+03  1.250000E+02 -4.725000E+03  9.568334E-08  1.632865E-09  1.798162E-10  9.566923E-08  5.320933E-10  9.095571E-12  1.001489E-12  5.320146E-10  0.000000E+00  0.000000E+00  0.000000E+00  0.000000E+00  0.000000E+00  0.000000E+00  0.000000E+00  0.000000E+00  1.271819E+00 -3.900706E-03  9.520725E-04  1.271813E+00                                                                                                                                                                                                                                                                                                                                                                                                                                                                                              