Title="TOUGHREACT V3.30-OMP flowvector.tec: Liq & Gas Fluxes (kg/s/m^2), Pore Velocities (m/s), & Heat Fluxes (J/s/m2)"                                                                                                                                                                                                                                                                                                                                                                                                                                                                                                                                                                                                                                                                                                         
Variables= "X(m)"     "Y(m)"      "Z(m)"     "FluxLiq"   "FluxLiq_X"   "FluxLiq_Y"   "FluxLiq_Z"   "PorVelLiq"  "PorVelLiqX"  "PorVelLiqY"  "PorVelLiqZ"     "FluxGas"   "FluxGas_X"   "FluxGas_Y"   "FluxGas_Z"   "PorVelGas"  "PorVelGasX"  "PorVelGasY"  "PorVelGasZ"    "HeatFlux"  "HeatFlux_X"  "HeatFlux_Y"  "HeatFlux_Z"                                                                                                                                                                                                                                                                                                                                                                                                                                                                                                
Zone T= "3.15569000E+08 sec" I=     9 J=    10 K=    23 F=Point
  1.250000E+02  1.250000E+02 -5.425000E+03  1.348399E-07 -3.320945E-10  5.064653E-11  1.348395E-07  7.709512E-10 -1.906590E-12  2.907673E-13  7.709488E-10  0.000000E+00  0.000000E+00  0.000000E+00  0.000000E+00  0.000000E+00  0.000000E+00  0.000000E+00  0.000000E+00  2.330859E-01 -3.305723E-04  5.041436E-05  2.330857E-01                                                                                                                                                                                                                                                                                                                                                                                                                                                                                              
  3.750000E+02  1.250000E+02 -5.425000E+03  1.347061E-07 -7.539093E-10  4.769088E-11  1.347040E-07  7.701853E-10 -4.328270E-12  2.737984E-13  7.701731E-10  0.000000E+00  0.000000E+00  0.000000E+00  0.000000E+00  0.000000E+00  0.000000E+00  0.000000E+00  0.000000E+00  2.329521E-01 -7.504573E-04  4.747280E-05  2.329509E-01                                                                                                                                                                                                                                                                                                                                                                                                                                                                                              
  6.250000E+02  1.250000E+02 -5.425000E+03  1.346163E-07 -7.659944E-10  4.729727E-11  1.346141E-07  7.696711E-10 -4.397648E-12  2.715383E-13  7.696585E-10  0.000000E+00  0.000000E+00  0.000000E+00  0.000000E+00  0.000000E+00  0.000000E+00  0.000000E+00  0.000000E+00  2.328628E-01 -7.638031E-04  4.708007E-05  2.328615E-01                                                                                                                                                                                                                                                                                                                                                                                                                                                                                              
  8.750000E+02  1.250000E+02 -5.425000E+03  1.346221E-07 -5.923000E-10  4.951431E-11  1.346207E-07  7.697033E-10 -3.400464E-12  2.842663E-13  7.696957E-10  0.000000E+00  0.000000E+00  0.000000E+00  0.000000E+00  0.000000E+00  0.000000E+00  0.000000E+00  0.000000E+00  2.328715E-01 -8.544506E-04  4.928787E-05  2.328699E-01                                                                                                                                                                                                                                                                                                                                                                                                                                                                                              
  1.050000E+03  1.250000E+02 -5.425000E+03  1.348016E-07 -3.647744E-16  4.987037E-11  1.348016E-07  7.707378E-10 -2.094246E-18  2.863166E-13  7.707378E-10  0.000000E+00  0.000000E+00  0.000000E+00  0.000000E+00  0.000000E+00  0.000000E+00  0.000000E+00  0.000000E+00  2.332898E-01 -2.956910E-11  4.964577E-05  2.332897E-01                                                                                                                                                                                                                                                                                                                                                                                                                                                                                              
  1.225000E+03  1.250000E+02 -5.425000E+03  1.346221E-07  5.922995E-10  4.951429E-11  1.346207E-07  7.697033E-10  3.400461E-12  2.842662E-13  7.696957E-10  0.000000E+00  0.000000E+00  0.000000E+00  0.000000E+00  0.000000E+00  0.000000E+00  0.000000E+00  0.000000E+00  2.328715E-01  8.544494E-04  4.928796E-05  2.328699E-01                                                                                                                                                                                                                                                                                                                                                                                                                                                                                              
  1.475000E+03  1.250000E+02 -5.425000E+03  1.346163E-07  7.659940E-10  4.729725E-11  1.346141E-07  7.696711E-10  4.397645E-12  2.715382E-13  7.696585E-10  0.000000E+00  0.000000E+00  0.000000E+00  0.000000E+00  0.000000E+00  0.000000E+00  0.000000E+00  0.000000E+00  2.328628E-01  7.638021E-04  4.708082E-05  2.328615E-01                                                                                                                                                                                                                                                                                                                                                                                                                                                                                              
  1.725000E+03  1.250000E+02 -5.425000E+03  1.347061E-07  7.539088E-10  4.769098E-11  1.347040E-07  7.701853E-10  4.328267E-12  2.737990E-13  7.701731E-10  0.000000E+00  0.000000E+00  0.000000E+00  0.000000E+00  0.000000E+00  0.000000E+00  0.000000E+00  0.000000E+00  2.329521E-01  7.504580E-04  4.747274E-05  2.329509E-01                                                                                                                                                                                                                                                                                                                                                                                                                                                                                              
  1.975000E+03  1.250000E+02 -5.425000E+03  1.348399E-07  3.320943E-10  5.064677E-11  1.348395E-07  7.709512E-10  1.906589E-12  2.907687E-13  7.709488E-10  0.000000E+00  0.000000E+00  0.000000E+00  0.000000E+00  0.000000E+00  0.000000E+00  0.000000E+00  0.000000E+00  2.330859E-01  3.305730E-04  5.041351E-05  2.330857E-01                                                                                                                                                                                                                                                                                                                                                                                                                                                                                              
  1.250000E+02  1.250000E+02 -5.225000E+03  4.799048E-07 -4.305846E-10  3.994816E-11  4.799046E-07  2.724758E-09 -2.450187E-12  2.273202E-13  2.724757E-09  0.000000E+00  0.000000E+00  0.000000E+00  0.000000E+00  0.000000E+00  0.000000E+00  0.000000E+00  0.000000E+00  6.641027E-01 -4.134588E-04  3.837393E-05  6.641025E-01                                                                                                                                                                                                                                                                                                                                                                                                                                                                                              
  3.750000E+02  1.250000E+02 -5.225000E+03  4.792980E-07 -9.133099E-10  3.447791E-11  4.792971E-07  2.721310E-09 -5.197070E-12  1.961921E-13  2.721305E-09  0.000000E+00  0.000000E+00  0.000000E+00  0.000000E+00  0.000000E+00  0.000000E+00  0.000000E+00  0.000000E+00  6.635240E-01 -8.769996E-04  3.313083E-05  6.635234E-01                                                                                                                                                                                                                                                                                                                                                                                                                                                                                              
  6.250000E+02  1.250000E+02 -5.225000E+03  4.789597E-07 -8.144776E-10  3.518628E-11  4.789590E-07  2.719385E-09 -4.634673E-12  2.002227E-13  2.719381E-09  0.000000E+00  0.000000E+00  0.000000E+00  0.000000E+00  0.000000E+00  0.000000E+00  0.000000E+00  0.000000E+00  6.632025E-01 -7.821323E-04  3.381967E-05  6.632021E-01                                                                                                                                                                                                                                                                                                                                                                                                                                                                                              
  8.750000E+02  1.250000E+02 -5.225000E+03  4.789007E-07 -4.185379E-10  4.100648E-11  4.789006E-07  2.719049E-09 -2.381631E-12  2.333416E-13  2.719048E-09  0.000000E+00  0.000000E+00  0.000000E+00  0.000000E+00  0.000000E+00  0.000000E+00  0.000000E+00  0.000000E+00  6.631536E-01 -4.037143E-04  3.940692E-05  6.631534E-01                                                                                                                                                                                                                                                                                                                                                                                                                                                                                              
  1.050000E+03  1.250000E+02 -5.225000E+03  4.790937E-07 -3.304732E-16  4.195499E-11  4.790937E-07  2.720159E-09 -1.880511E-18  2.387389E-13  2.720159E-09  0.000000E+00  0.000000E+00  0.000000E+00  0.000000E+00  0.000000E+00  0.000000E+00  0.000000E+00  0.000000E+00  6.635874E-01 -3.155321E-10  4.031811E-05  6.635874E-01                                                                                                                                                                                                                                                                                                                                                                                                                                                                                              
  1.225000E+03  1.250000E+02 -5.225000E+03  4.789007E-07  4.185373E-10  4.100652E-11  4.789006E-07  2.719049E-09  2.381628E-12  2.333418E-13  2.719048E-09  0.000000E+00  0.000000E+00  0.000000E+00  0.000000E+00  0.000000E+00  0.000000E+00  0.000000E+00  0.000000E+00  6.631536E-01  4.037137E-04  3.940699E-05  6.631534E-01                                                                                                                                                                                                                                                                                                                                                                                                                                                                                              
  1.475000E+03  1.250000E+02 -5.225000E+03  4.789597E-07  8.144771E-10  3.518632E-11  4.789590E-07  2.719385E-09  4.634670E-12  2.002230E-13  2.719381E-09  0.000000E+00  0.000000E+00  0.000000E+00  0.000000E+00  0.000000E+00  0.000000E+00  0.000000E+00  0.000000E+00  6.632025E-01  7.821319E-04  3.381973E-05  6.632021E-01                                                                                                                                                                                                                                                                                                                                                                                                                                                                                              
  1.725000E+03  1.250000E+02 -5.225000E+03  4.792980E-07  9.133097E-10  3.447796E-11  4.792971E-07  2.721310E-09  5.197069E-12  1.961924E-13  2.721305E-09  0.000000E+00  0.000000E+00  0.000000E+00  0.000000E+00  0.000000E+00  0.000000E+00  0.000000E+00  0.000000E+00  6.635240E-01  8.769994E-04  3.313094E-05  6.635234E-01                                                                                                                                                                                                                                                                                                                                                                                                                                                                                              
  1.975000E+03  1.250000E+02 -5.225000E+03  4.799048E-07  4.305845E-10  3.994820E-11  4.799046E-07  2.724758E-09  2.450186E-12  2.273205E-13  2.724757E-09  0.000000E+00  0.000000E+00  0.000000E+00  0.000000E+00  0.000000E+00  0.000000E+00  0.000000E+00  0.000000E+00  6.641027E-01  4.134587E-04  3.837400E-05  6.641025E-01                                                                                                                                                                                                                                                                                                                                                                                                                                                                                              
  1.250000E+02  1.250000E+02 -4.975000E+03  8.362017E-07 -8.724645E-10 -1.433116E-11  8.362012E-07  4.706579E-09 -4.914473E-12 -8.072570E-14  4.706576E-09  0.000000E+00  0.000000E+00  0.000000E+00  0.000000E+00  0.000000E+00  0.000000E+00  0.000000E+00  0.000000E+00  9.846560E-01 -7.903967E-04 -1.136945E-05  9.846557E-01                                                                                                                                                                                                                                                                                                                                                                                                                                                                                              
  3.750000E+02  1.250000E+02 -4.975000E+03  8.341910E-07 -1.579708E-09 -3.369964E-11  8.341895E-07  4.694916E-09 -8.898268E-12 -1.898252E-13  4.694907E-09  0.000000E+00  0.000000E+00  0.000000E+00  0.000000E+00  0.000000E+00  0.000000E+00  0.000000E+00  0.000000E+00  9.851244E-01 -1.432019E-03 -2.642609E-05  9.851233E-01                                                                                                                                                                                                                                                                                                                                                                                                                                                                                              
  6.250000E+02  1.250000E+02 -4.975000E+03  8.335821E-07 -1.091143E-09 -2.536551E-11  8.335814E-07  4.691299E-09 -6.146238E-12 -1.428798E-13  4.691295E-09  0.000000E+00  0.000000E+00  0.000000E+00  0.000000E+00  0.000000E+00  0.000000E+00  0.000000E+00  0.000000E+00  9.857398E-01 -9.879638E-04 -1.676465E-05  9.857393E-01                                                                                                                                                                                                                                                                                                                                                                                                                                                                                              
  8.750000E+02  1.250000E+02 -4.975000E+03  8.334557E-07 -4.515307E-10  1.424719E-12  8.334556E-07  4.690466E-09 -2.543398E-12  8.025204E-15  4.690465E-09  0.000000E+00  0.000000E+00  0.000000E+00  0.000000E+00  0.000000E+00  0.000000E+00  0.000000E+00  0.000000E+00  9.863770E-01 -4.070072E-04  6.866336E-06  9.863769E-01                                                                                                                                                                                                                                                                                                                                                                                                                                                                                              
  1.050000E+03  1.250000E+02 -4.975000E+03  8.334613E-07 -1.728550E-16  6.342013E-12  8.334613E-07  4.690490E-09 -9.736633E-19  3.572348E-14  4.690490E-09  0.000000E+00  0.000000E+00  0.000000E+00  0.000000E+00  0.000000E+00  0.000000E+00  0.000000E+00  0.000000E+00  9.864286E-01 -1.377887E-10  1.135796E-05  9.864286E-01                                                                                                                                                                                                                                                                                                                                                                                                                                                                                              
  1.225000E+03  1.250000E+02 -4.975000E+03  8.334557E-07  4.515304E-10  1.424706E-12  8.334556E-07  4.690466E-09  2.543396E-12  8.025130E-15  4.690465E-09  0.000000E+00  0.000000E+00  0.000000E+00  0.000000E+00  0.000000E+00  0.000000E+00  0.000000E+00  0.000000E+00  9.863770E-01  4.070068E-04  6.866340E-06  9.863769E-01                                                                                                                                                                                                                                                                                                                                                                                                                                                                                              
  1.475000E+03  1.250000E+02 -4.975000E+03  8.335821E-07  1.091143E-09 -2.536548E-11  8.335814E-07  4.691299E-09  6.146236E-12 -1.428797E-13  4.691295E-09  0.000000E+00  0.000000E+00  0.000000E+00  0.000000E+00  0.000000E+00  0.000000E+00  0.000000E+00  0.000000E+00  9.857398E-01  9.879635E-04 -1.676455E-05  9.857393E-01                                                                                                                                                                                                                                                                                                                                                                                                                                                                                              
  1.725000E+03  1.250000E+02 -4.975000E+03  8.341910E-07  1.579708E-09 -3.369964E-11  8.341895E-07  4.694916E-09  8.898268E-12 -1.898252E-13  4.694907E-09  0.000000E+00  0.000000E+00  0.000000E+00  0.000000E+00  0.000000E+00  0.000000E+00  0.000000E+00  0.000000E+00  9.851244E-01  1.432019E-03 -2.642605E-05  9.851233E-01                                                                                                                                                                                                                                                                                                                                                                                                                                                                                              
  1.975000E+03  1.250000E+02 -4.975000E+03  8.362017E-07  8.724646E-10 -1.433118E-11  8.362012E-07  4.706579E-09  4.914473E-12 -8.072579E-14  4.706576E-09  0.000000E+00  0.000000E+00  0.000000E+00  0.000000E+00  0.000000E+00  0.000000E+00  0.000000E+00  0.000000E+00  9.846560E-01  7.903966E-04 -1.136939E-05  9.846557E-01                                                                                                                                                                                                                                                                                                                                                                                                                                                                                              
  1.250000E+02  1.250000E+02 -4.725000E+03  9.758427E-07 -2.031857E-09 -1.724660E-10  9.758406E-07  5.374095E-09 -1.133342E-11 -9.620938E-13  5.374083E-09  0.000000E+00  0.000000E+00  0.000000E+00  0.000000E+00  0.000000E+00  0.000000E+00  0.000000E+00  0.000000E+00  1.908221E+00  5.666152E-04  2.531471E-04  1.908221E+00                                                                                                                                                                                                                                                                                                                                                                                                                                                                                              
  3.750000E+02  1.250000E+02 -4.725000E+03  9.527453E-07 -2.912034E-09 -2.267082E-10  9.527408E-07  5.231017E-09 -1.624198E-11 -1.264326E-12  5.230992E-09  0.000000E+00  0.000000E+00  0.000000E+00  0.000000E+00  0.000000E+00  0.000000E+00  0.000000E+00  0.000000E+00  2.131020E+00  9.869487E-04  6.830501E-04  2.131020E+00                                                                                                                                                                                                                                                                                                                                                                                                                                                                                              
  6.250000E+02  1.250000E+02 -4.725000E+03  9.518017E-07 -1.214112E-09 -1.735185E-10  9.518009E-07  5.224365E-09 -6.770647E-12 -9.675575E-13  5.224361E-09  0.000000E+00  0.000000E+00  0.000000E+00  0.000000E+00  0.000000E+00  0.000000E+00  0.000000E+00  0.000000E+00  2.146774E+00  8.869900E-04  9.405819E-04  2.146774E+00                                                                                                                                                                                                                                                                                                                                                                                                                                                                                              
  8.750000E+02  1.250000E+02 -4.725000E+03  9.535227E-07 -3.998687E-10 -7.444285E-11  9.535226E-07  5.234590E-09 -2.229732E-12 -4.150727E-13  5.234590E-09  0.000000E+00  0.000000E+00  0.000000E+00  0.000000E+00  0.000000E+00  0.000000E+00  0.000000E+00  0.000000E+00  2.129656E+00  4.731944E-04  7.814398E-04  2.129656E+00                                                                                                                                                                                                                                                                                                                                                                                                                                                                                              
  1.050000E+03  1.250000E+02 -4.725000E+03  9.541501E-07 -9.500776E-18 -4.760455E-11  9.541501E-07  5.238600E-09 -5.296963E-20 -2.654287E-13  5.238600E-09  0.000000E+00  0.000000E+00  0.000000E+00  0.000000E+00  0.000000E+00  0.000000E+00  0.000000E+00  0.000000E+00  2.120473E+00 -4.518878E-10  7.914066E-04  2.120473E+00                                                                                                                                                                                                                                                                                                                                                                                                                                                                                              
  1.225000E+03  1.250000E+02 -4.725000E+03  9.535227E-07  3.998687E-10 -7.444295E-11  9.535226E-07  5.234590E-09  2.229732E-12 -4.150732E-13  5.234590E-09  0.000000E+00  0.000000E+00  0.000000E+00  0.000000E+00  0.000000E+00  0.000000E+00  0.000000E+00  0.000000E+00  2.129656E+00 -4.731950E-04  7.814406E-04  2.129656E+00                                                                                                                                                                                                                                                                                                                                                                                                                                                                                              
  1.475000E+03  1.250000E+02 -4.725000E+03  9.518017E-07  1.214111E-09 -1.735185E-10  9.518009E-07  5.224365E-09  6.770647E-12 -9.675573E-13  5.224361E-09  0.000000E+00  0.000000E+00  0.000000E+00  0.000000E+00  0.000000E+00  0.000000E+00  0.000000E+00  0.000000E+00  2.146774E+00 -8.869897E-04  9.405814E-04  2.146774E+00                                                                                                                                                                                                                                                                                                                                                                                                                                                                                              
  1.725000E+03  1.250000E+02 -4.725000E+03  9.527453E-07  2.912034E-09 -2.267082E-10  9.527408E-07  5.231017E-09  1.624198E-11 -1.264326E-12  5.230992E-09  0.000000E+00  0.000000E+00  0.000000E+00  0.000000E+00  0.000000E+00  0.000000E+00  0.000000E+00  0.000000E+00  2.131020E+00 -9.869501E-04  6.830499E-04  2.131020E+00                                                                                                                                                                                                                                                                                                                                                                                                                                                                                              