Title="TOUGHREACT V3.30-OMP flowvector.tec: Liq & Gas Fluxes (kg/s/m^2), Pore Velocities (m/s), & Heat Fluxes (J/s/m2)"                                                                                                                                                                                                                                                                                                                                                                                                                                                                                                                                                                                                                                                                                                         
Variables= "X(m)"     "Y(m)"      "Z(m)"     "FluxLiq"   "FluxLiq_X"   "FluxLiq_Y"   "FluxLiq_Z"   "PorVelLiq"  "PorVelLiqX"  "PorVelLiqY"  "PorVelLiqZ"     "FluxGas"   "FluxGas_X"   "FluxGas_Y"   "FluxGas_Z"   "PorVelGas"  "PorVelGasX"  "PorVelGasY"  "PorVelGasZ"    "HeatFlux"  "HeatFlux_X"  "HeatFlux_Y"  "HeatFlux_Z"                                                                                                                                                                                                                                                                                                                                                                                                                                                                                                
Zone T= "5.18400000E+05 sec" I=     9 J=    10 K=    23 F=Point
  1.250000E+02  1.250000E+02 -5.425000E+03  4.710663E-07 -1.900625E-15 -1.445312E-15  4.710663E-07  2.680307E-09 -1.085851E-17 -8.257250E-18  2.680307E-09  0.000000E+00  0.000000E+00  0.000000E+00  0.000000E+00  0.000000E+00  0.000000E+00  0.000000E+00  0.000000E+00  5.692502E-01 -1.939109E-09 -1.476337E-09  5.692502E-01                                                                                                                                                                                                                                                                                                                                                                                                                                                                                              
  3.750000E+02  1.250000E+02 -5.425000E+03  4.710663E-07 -2.611472E-15  2.212989E-15  4.710663E-07  2.680307E-09 -1.491967E-17  1.264308E-17  2.680307E-09  0.000000E+00  0.000000E+00  0.000000E+00  0.000000E+00  0.000000E+00  0.000000E+00  0.000000E+00  0.000000E+00  5.692502E-01 -2.659068E-09  2.260517E-09  5.692502E-01                                                                                                                                                                                                                                                                                                                                                                                                                                                                                              
  6.250000E+02  1.250000E+02 -5.425000E+03  4.710663E-07 -8.770854E-14 -2.416402E-16  4.710663E-07  2.680307E-09 -5.010898E-16 -1.380521E-18  2.680307E-09  0.000000E+00  0.000000E+00  0.000000E+00  0.000000E+00  0.000000E+00  0.000000E+00  0.000000E+00  0.000000E+00  5.692502E-01 -8.738523E-08 -2.402695E-10  5.692502E-01                                                                                                                                                                                                                                                                                                                                                                                                                                                                                              
  8.750000E+02  1.250000E+02 -5.425000E+03  4.710664E-07 -1.778635E-11  2.483541E-16  4.710664E-07  2.680308E-09 -1.016157E-13  1.418878E-18  2.680308E-09  0.000000E+00  0.000000E+00  0.000000E+00  0.000000E+00  0.000000E+00  0.000000E+00  0.000000E+00  0.000000E+00  5.692503E-01 -1.818228E-05  2.499811E-10  5.692503E-01                                                                                                                                                                                                                                                                                                                                                                                                                                                                                              
  1.050000E+03  1.250000E+02 -5.425000E+03  4.710819E-07  2.412004E-19 -3.704604E-15  4.710819E-07  2.680396E-09  1.378008E-21 -2.116487E-17  2.680396E-09  0.000000E+00  0.000000E+00  0.000000E+00  0.000000E+00  0.000000E+00  0.000000E+00  0.000000E+00  0.000000E+00  5.692662E-01  2.406794E-13 -3.780604E-09  5.692662E-01                                                                                                                                                                                                                                                                                                                                                                                                                                                                                              
  1.225000E+03  1.250000E+02 -5.425000E+03  4.710664E-07  1.778651E-11  1.871048E-16  4.710664E-07  2.680308E-09  1.016166E-13  1.068953E-18  2.680308E-09  0.000000E+00  0.000000E+00  0.000000E+00  0.000000E+00  0.000000E+00  0.000000E+00  0.000000E+00  0.000000E+00  5.692503E-01  1.818245E-05  1.874222E-10  5.692503E-01                                                                                                                                                                                                                                                                                                                                                                                                                                                                                              
  1.475000E+03  1.250000E+02 -5.425000E+03  4.710663E-07  8.978363E-14 -4.340983E-16  4.710663E-07  2.680307E-09  5.129451E-16 -2.480058E-18  2.680307E-09  0.000000E+00  0.000000E+00  0.000000E+00  0.000000E+00  0.000000E+00  0.000000E+00  0.000000E+00  0.000000E+00  5.692502E-01  8.950699E-08 -4.366598E-10  5.692502E-01                                                                                                                                                                                                                                                                                                                                                                                                                                                                                              
  1.725000E+03  1.250000E+02 -5.425000E+03  4.710663E-07  1.033014E-15  2.577297E-17  4.710663E-07  2.680307E-09  5.901740E-18  1.472442E-19  2.680307E-09  0.000000E+00  0.000000E+00  0.000000E+00  0.000000E+00  0.000000E+00  0.000000E+00  0.000000E+00  0.000000E+00  5.692502E-01  1.046981E-09  2.646034E-11  5.692502E-01                                                                                                                                                                                                                                                                                                                                                                                                                                                                                              
  1.975000E+03  1.250000E+02 -5.425000E+03  4.710663E-07 -1.593187E-15 -9.931780E-21  4.710663E-07  2.680307E-09 -9.102074E-18 -5.674150E-23  2.680307E-09  0.000000E+00  0.000000E+00  0.000000E+00  0.000000E+00  0.000000E+00  0.000000E+00  0.000000E+00  0.000000E+00  5.692502E-01 -1.631707E-09 -1.017782E-14  5.692502E-01                                                                                                                                                                                                                                                                                                                                                                                                                                                                                              
  1.250000E+02  1.250000E+02 -5.225000E+03  9.156797E-07  2.232625E-17  4.268740E-17  9.156797E-07  5.187395E-09  1.265172E-19  2.418987E-19  5.187395E-09  0.000000E+00  0.000000E+00  0.000000E+00  0.000000E+00  0.000000E+00  0.000000E+00  0.000000E+00  0.000000E+00  1.096380E+00  2.156853E-11  4.191032E-11  1.096380E+00                                                                                                                                                                                                                                                                                                                                                                                                                                                                                              
  3.750000E+02  1.250000E+02 -5.225000E+03  9.156798E-07  1.202991E-16  5.744511E-17  9.156798E-07  5.187395E-09  6.817044E-19  3.255268E-19  5.187395E-09  0.000000E+00  0.000000E+00  0.000000E+00  0.000000E+00  0.000000E+00  0.000000E+00  0.000000E+00  0.000000E+00  1.096380E+00  1.176433E-10  5.668797E-11  1.096380E+00                                                                                                                                                                                                                                                                                                                                                                                                                                                                                              
  6.250000E+02  1.250000E+02 -5.225000E+03  9.156798E-07 -6.418676E-16 -2.771568E-17  9.156798E-07  5.187395E-09 -3.637300E-18 -1.570577E-19  5.187395E-09  0.000000E+00  0.000000E+00  0.000000E+00  0.000000E+00  0.000000E+00  0.000000E+00  0.000000E+00  0.000000E+00  1.096380E+00 -6.133043E-10 -2.682902E-11  1.096380E+00                                                                                                                                                                                                                                                                                                                                                                                                                                                                                              
  8.750000E+02  1.250000E+02 -5.225000E+03  9.156799E-07 -1.078974E-13 -3.603331E-17  9.156799E-07  5.187396E-09 -6.114270E-16 -2.041916E-19  5.187396E-09  0.000000E+00  0.000000E+00  0.000000E+00  0.000000E+00  0.000000E+00  0.000000E+00  0.000000E+00  0.000000E+00  1.096380E+00 -1.037202E-07 -3.536299E-11  1.096380E+00                                                                                                                                                                                                                                                                                                                                                                                                                                                                                              
  1.050000E+03  1.250000E+02 -5.225000E+03  9.156955E-07 -2.056822E-17  1.295798E-17  9.156955E-07  5.187485E-09 -1.165549E-19  7.342958E-20  5.187485E-09  0.000000E+00  0.000000E+00  0.000000E+00  0.000000E+00  0.000000E+00  0.000000E+00  0.000000E+00  0.000000E+00  1.096396E+00 -2.016990E-11  1.333462E-11  1.096396E+00                                                                                                                                                                                                                                                                                                                                                                                                                                                                                              
  1.225000E+03  1.250000E+02 -5.225000E+03  9.156799E-07  1.080155E-13  2.354228E-18  9.156799E-07  5.187396E-09  6.120964E-16  1.334081E-20  5.187396E-09  0.000000E+00  0.000000E+00  0.000000E+00  0.000000E+00  0.000000E+00  0.000000E+00  0.000000E+00  0.000000E+00  1.096380E+00  1.038373E-07  2.701051E-12  1.096380E+00                                                                                                                                                                                                                                                                                                                                                                                                                                                                                              
  1.475000E+03  1.250000E+02 -5.225000E+03  9.156798E-07  7.161814E-16 -1.283054E-16  9.156798E-07  5.187395E-09  4.058418E-18 -7.270742E-19  5.187395E-09  0.000000E+00  0.000000E+00  0.000000E+00  0.000000E+00  0.000000E+00  0.000000E+00  0.000000E+00  0.000000E+00  1.096380E+00  6.864785E-10 -1.269355E-10  1.096380E+00                                                                                                                                                                                                                                                                                                                                                                                                                                                                                              
  1.725000E+03  1.250000E+02 -5.225000E+03  9.156797E-07 -2.481862E-16 -3.615977E-17  9.156797E-07  5.187395E-09 -1.406408E-18 -2.049082E-19  5.187395E-09  0.000000E+00  0.000000E+00  0.000000E+00  0.000000E+00  0.000000E+00  0.000000E+00  0.000000E+00  0.000000E+00  1.096380E+00 -2.441815E-10 -3.548818E-11  1.096380E+00                                                                                                                                                                                                                                                                                                                                                                                                                                                                                              
  1.975000E+03  1.250000E+02 -5.225000E+03  9.156797E-07 -8.583203E-17  6.809750E-19  9.156797E-07  5.187395E-09 -4.863883E-19  3.858912E-21  5.187395E-09  0.000000E+00  0.000000E+00  0.000000E+00  0.000000E+00  0.000000E+00  0.000000E+00  0.000000E+00  0.000000E+00  1.096380E+00 -8.407402E-11  6.829026E-13  1.096380E+00                                                                                                                                                                                                                                                                                                                                                                                                                                                                                              
  1.250000E+02  1.250000E+02 -4.975000E+03  8.751193E-07  2.753637E-15  3.260213E-17  8.751193E-07  4.911227E-09  1.545102E-17  1.829349E-19  4.911227E-09  0.000000E+00  0.000000E+00  0.000000E+00  0.000000E+00  0.000000E+00  0.000000E+00  0.000000E+00  0.000000E+00  1.021669E+00  2.526527E-09  3.092464E-11  1.021669E+00                                                                                                                                                                                                                                                                                                                                                                                                                                                                                              
  3.750000E+02  1.250000E+02 -4.975000E+03  8.751196E-07  8.063898E-15  9.903522E-17  8.751196E-07  4.911229E-09  4.524761E-17  5.556999E-19  4.911229E-09  0.000000E+00  0.000000E+00  0.000000E+00  0.000000E+00  0.000000E+00  0.000000E+00  0.000000E+00  0.000000E+00  1.021669E+00  7.392968E-09  9.364369E-11  1.021669E+00                                                                                                                                                                                                                                                                                                                                                                                                                                                                                              
  6.250000E+02  1.250000E+02 -4.975000E+03  8.751203E-07  1.341027E-14  9.256962E-17  8.751203E-07  4.911233E-09  7.524682E-17  5.194205E-19  4.911233E-09  0.000000E+00  0.000000E+00  0.000000E+00  0.000000E+00  0.000000E+00  0.000000E+00  0.000000E+00  0.000000E+00  1.021670E+00  1.229389E-08  8.741317E-11  1.021670E+00                                                                                                                                                                                                                                                                                                                                                                                                                                                                                              
  8.750000E+02  1.250000E+02 -4.975000E+03  8.751214E-07  1.797439E-14  8.427966E-17  8.751214E-07  4.911239E-09  1.008567E-16  4.729045E-19  4.911239E-09  0.000000E+00  0.000000E+00  0.000000E+00  0.000000E+00  0.000000E+00  0.000000E+00  0.000000E+00  0.000000E+00  1.021671E+00  1.648743E-08  7.920977E-11  1.021671E+00                                                                                                                                                                                                                                                                                                                                                                                                                                                                                              
  1.050000E+03  1.250000E+02 -4.975000E+03  8.751225E-07 -2.114689E-17  8.186924E-17  8.751225E-07  4.911245E-09 -1.186580E-19  4.593793E-19  4.911245E-09  0.000000E+00  0.000000E+00  0.000000E+00  0.000000E+00  0.000000E+00  0.000000E+00  0.000000E+00  0.000000E+00  1.021672E+00 -1.961027E-11  7.696554E-11  1.021672E+00                                                                                                                                                                                                                                                                                                                                                                                                                                                                                              
  1.225000E+03  1.250000E+02 -4.975000E+03  8.751214E-07 -1.783285E-14  3.289516E-16  8.751214E-07  4.911239E-09 -1.000625E-16  1.845791E-18  4.911239E-09  0.000000E+00  0.000000E+00  0.000000E+00  0.000000E+00  0.000000E+00  0.000000E+00  0.000000E+00  0.000000E+00  1.021671E+00 -1.635336E-08  3.106420E-10  1.021671E+00                                                                                                                                                                                                                                                                                                                                                                                                                                                                                              
  1.475000E+03  1.250000E+02 -4.975000E+03  8.751203E-07 -1.336212E-14 -8.788112E-17  8.751203E-07  4.911233E-09 -7.497663E-17 -4.931127E-19  4.911233E-09  0.000000E+00  0.000000E+00  0.000000E+00  0.000000E+00  0.000000E+00  0.000000E+00  0.000000E+00  0.000000E+00  1.021670E+00 -1.224868E-08 -8.328900E-11  1.021670E+00                                                                                                                                                                                                                                                                                                                                                                                                                                                                                              
  1.725000E+03  1.250000E+02 -4.975000E+03  8.751196E-07 -7.988901E-15  7.628274E-17  8.751196E-07  4.911229E-09 -4.482679E-17  4.280327E-19  4.911229E-09  0.000000E+00  0.000000E+00  0.000000E+00  0.000000E+00  0.000000E+00  0.000000E+00  0.000000E+00  0.000000E+00  1.021669E+00 -7.322584E-09  7.171260E-11  1.021669E+00                                                                                                                                                                                                                                                                                                                                                                                                                                                                                              
  1.975000E+03  1.250000E+02 -4.975000E+03  8.751193E-07 -2.564102E-15 -8.156676E-17  8.751193E-07  4.911227E-09 -1.438752E-17 -4.576820E-19  4.911227E-09  0.000000E+00  0.000000E+00  0.000000E+00  0.000000E+00  0.000000E+00  0.000000E+00  0.000000E+00  0.000000E+00  1.021669E+00 -2.347671E-09 -7.638792E-11  1.021669E+00                                                                                                                                                                                                                                                                                                                                                                                                                                                                                              
  1.250000E+02  1.250000E+02 -4.725000E+03  4.139533E-06  3.451574E-13 -3.326305E-15  4.139533E-06  2.296098E-08  1.918480E-15 -1.848852E-17  2.296098E-08  0.000000E+00  0.000000E+00  0.000000E+00  0.000000E+00  0.000000E+00  0.000000E+00  0.000000E+00  0.000000E+00  3.830780E+00  3.011424E-07 -2.982926E-09  3.830780E+00                                                                                                                                                                                                                                                                                                                                                                                                                                                                                              
  3.750000E+02  1.250000E+02 -4.725000E+03  4.139535E-06  1.043871E-12  5.238050E-16  4.139535E-06  2.296100E-08  5.802121E-15  2.911453E-18  2.296100E-08  0.000000E+00  0.000000E+00  0.000000E+00  0.000000E+00  0.000000E+00  0.000000E+00  0.000000E+00  0.000000E+00  3.830782E+00  9.109740E-07  4.960863E-10  3.830782E+00                                                                                                                                                                                                                                                                                                                                                                                                                                                                                              
  6.250000E+02  1.250000E+02 -4.725000E+03  4.139540E-06  1.739582E-12  1.266244E-15  4.139540E-06  2.296102E-08  9.669076E-15  7.038131E-18  2.296102E-08  0.000000E+00  0.000000E+00  0.000000E+00  0.000000E+00  0.000000E+00  0.000000E+00  0.000000E+00  0.000000E+00  3.830786E+00  1.518130E-06  1.135442E-09  3.830786E+00                                                                                                                                                                                                                                                                                                                                                                                                                                                                                              
  8.750000E+02  1.250000E+02 -4.725000E+03  4.139547E-06  2.362439E-12  5.676855E-15  4.139547E-06  2.296106E-08  1.313109E-14  3.155353E-17  2.296106E-08  0.000000E+00  0.000000E+00  0.000000E+00  0.000000E+00  0.000000E+00  0.000000E+00  0.000000E+00  0.000000E+00  3.830793E+00  2.061617E-06  5.073421E-09  3.830793E+00                                                                                                                                                                                                                                                                                                                                                                                                                                                                                              
  1.050000E+03  1.250000E+02 -4.725000E+03  4.139554E-06  4.806289E-16  2.684208E-15  4.139554E-06  2.296110E-08  2.671468E-18  1.491957E-17  2.296110E-08  0.000000E+00  0.000000E+00  0.000000E+00  0.000000E+00  0.000000E+00  0.000000E+00  0.000000E+00  0.000000E+00  3.830794E+00  4.224170E-10  2.463373E-09  3.830794E+00                                                                                                                                                                                                                                                                                                                                                                                                                                                                                              
  1.225000E+03  1.250000E+02 -4.725000E+03  4.139547E-06 -2.362753E-12  2.793593E-15  4.139547E-06  2.296106E-08 -1.313283E-14  1.552756E-17  2.296106E-08  0.000000E+00  0.000000E+00  0.000000E+00  0.000000E+00  0.000000E+00  0.000000E+00  0.000000E+00  0.000000E+00  3.830793E+00 -2.061902E-06  2.513200E-09  3.830793E+00                                                                                                                                                                                                                                                                                                                                                                                                                                                                                              
  1.475000E+03  1.250000E+02 -4.725000E+03  4.139540E-06 -1.739167E-12 -1.000185E-15  4.139540E-06  2.296102E-08 -9.666770E-15 -5.559306E-18  2.296102E-08  0.000000E+00  0.000000E+00  0.000000E+00  0.000000E+00  0.000000E+00  0.000000E+00  0.000000E+00  0.000000E+00  3.830786E+00 -1.517716E-06 -8.804120E-10  3.830786E+00                                                                                                                                                                                                                                                                                                                                                                                                                                                                                              
  1.725000E+03  1.250000E+02 -4.725000E+03  4.139535E-06 -1.042068E-12  3.364649E-15  4.139535E-06  2.296100E-08 -5.792103E-15  1.870165E-17  2.296100E-08  0.000000E+00  0.000000E+00  0.000000E+00  0.000000E+00  0.000000E+00  0.000000E+00  0.000000E+00  0.000000E+00  3.830782E+00 -9.093017E-07  3.007148E-09  3.830782E+00                                                                                                                                                                                                                                                                                                                                                                                                                                                                                              