Title="TOUGHREACT V3.30-OMP flowvector.tec: Liq & Gas Fluxes (kg/s/m^2), Pore Velocities (m/s), & Heat Fluxes (J/s/m2)"                                                                                                                                                                                                                                                                                                                                                                                                                                                                                                                                                                                                                                                                                                         
Variables= "X(m)"     "Y(m)"      "Z(m)"     "FluxLiq"   "FluxLiq_X"   "FluxLiq_Y"   "FluxLiq_Z"   "PorVelLiq"  "PorVelLiqX"  "PorVelLiqY"  "PorVelLiqZ"     "FluxGas"   "FluxGas_X"   "FluxGas_Y"   "FluxGas_Z"   "PorVelGas"  "PorVelGasX"  "PorVelGasY"  "PorVelGasZ"    "HeatFlux"  "HeatFlux_X"  "HeatFlux_Y"  "HeatFlux_Z"                                                                                                                                                                                                                                                                                                                                                                                                                                                                                                
Zone T= "1.00000000E+07 sec" I=     9 J=    10 K=    23 F=Point
  1.250000E+02  1.250000E+02 -5.425000E+03  3.578638E-07 -6.363553E-14 -5.836185E-16  3.578638E-07  2.036570E-09 -3.636315E-16 -3.334962E-18  2.036570E-09  0.000000E+00  0.000000E+00  0.000000E+00  0.000000E+00  0.000000E+00  0.000000E+00  0.000000E+00  0.000000E+00  4.563793E-01 -6.371563E-08 -6.650326E-10  4.563793E-01                                                                                                                                                                                                                                                                                                                                                                                                                                                                                              
  3.750000E+02  1.250000E+02 -5.425000E+03  3.578639E-07 -1.018974E-12  4.146493E-15  3.578639E-07  2.036570E-09 -5.822708E-15  2.369424E-17  2.036570E-09  0.000000E+00  0.000000E+00  0.000000E+00  0.000000E+00  0.000000E+00  0.000000E+00  0.000000E+00  0.000000E+00  4.563793E-01 -1.015106E-06  4.549216E-09  4.563793E-01                                                                                                                                                                                                                                                                                                                                                                                                                                                                                              
  6.250000E+02  1.250000E+02 -5.425000E+03  3.578649E-07 -1.504411E-11 -1.632603E-14  3.578649E-07  2.036576E-09 -8.596634E-14 -9.329158E-17  2.036576E-09  0.000000E+00  0.000000E+00  0.000000E+00  0.000000E+00  0.000000E+00  0.000000E+00  0.000000E+00  0.000000E+00  4.563803E-01 -1.499441E-05 -1.691894E-08  4.563803E-01                                                                                                                                                                                                                                                                                                                                                                                                                                                                                              
  8.750000E+02  1.250000E+02 -5.425000E+03  3.578801E-07 -1.780453E-10  8.236341E-15  3.578800E-07  2.036662E-09 -1.017401E-12  4.706479E-17  2.036662E-09  0.000000E+00  0.000000E+00  0.000000E+00  0.000000E+00  0.000000E+00  0.000000E+00  0.000000E+00  0.000000E+00  4.563954E-01 -1.862168E-04  8.520337E-09  4.563954E-01                                                                                                                                                                                                                                                                                                                                                                                                                                                                                              
  1.050000E+03  1.250000E+02 -5.425000E+03  3.580151E-07  9.622156E-15  2.259339E-15  3.580151E-07  2.037431E-09  5.498373E-17  1.291051E-17  2.037431E-09  0.000000E+00  0.000000E+00  0.000000E+00  0.000000E+00  0.000000E+00  0.000000E+00  0.000000E+00  0.000000E+00  4.565387E-01  9.934455E-09  1.963936E-09  4.565387E-01                                                                                                                                                                                                                                                                                                                                                                                                                                                                                              
  1.225000E+03  1.250000E+02 -5.425000E+03  3.578801E-07  1.780279E-10  1.069256E-14  3.578800E-07  2.036662E-09  1.017302E-12  6.110031E-17  2.036662E-09  0.000000E+00  0.000000E+00  0.000000E+00  0.000000E+00  0.000000E+00  0.000000E+00  0.000000E+00  0.000000E+00  4.563954E-01  1.861988E-04  1.108497E-08  4.563954E-01                                                                                                                                                                                                                                                                                                                                                                                                                                                                                              
  1.475000E+03  1.250000E+02 -5.425000E+03  3.578649E-07  1.502398E-11  4.827846E-16  3.578649E-07  2.036576E-09  8.585129E-14  2.758769E-18  2.036576E-09  0.000000E+00  0.000000E+00  0.000000E+00  0.000000E+00  0.000000E+00  0.000000E+00  0.000000E+00  0.000000E+00  4.563803E-01  1.497377E-05  6.528129E-10  4.563803E-01                                                                                                                                                                                                                                                                                                                                                                                                                                                                                              
  1.725000E+03  1.250000E+02 -5.425000E+03  3.578639E-07  1.054897E-12 -1.467464E-15  3.578639E-07  2.036570E-09  6.027980E-15 -8.385506E-18  2.036570E-09  0.000000E+00  0.000000E+00  0.000000E+00  0.000000E+00  0.000000E+00  0.000000E+00  0.000000E+00  0.000000E+00  4.563793E-01  1.052253E-06 -1.216900E-09  4.563793E-01                                                                                                                                                                                                                                                                                                                                                                                                                                                                                              
  1.975000E+03  1.250000E+02 -5.425000E+03  3.578638E-07  9.266507E-14 -3.195757E-14  3.578638E-07  2.036570E-09  5.295146E-16 -1.826146E-16  2.036570E-09  0.000000E+00  0.000000E+00  0.000000E+00  0.000000E+00  0.000000E+00  0.000000E+00  0.000000E+00  0.000000E+00  4.563792E-01  9.355690E-08 -3.309711E-08  4.563792E-01                                                                                                                                                                                                                                                                                                                                                                                                                                                                                              
  1.250000E+02  1.250000E+02 -5.225000E+03  8.213122E-07 -1.074648E-14 -1.595088E-15  8.213122E-07  4.649903E-09 -6.089825E-17 -9.039056E-18  4.649903E-09  0.000000E+00  0.000000E+00  0.000000E+00  0.000000E+00  0.000000E+00  0.000000E+00  0.000000E+00  0.000000E+00  1.001608E+00 -1.033481E-08 -1.550356E-09  1.001608E+00                                                                                                                                                                                                                                                                                                                                                                                                                                                                                              
  3.750000E+02  1.250000E+02 -5.225000E+03  8.213123E-07 -1.896555E-13 -2.072611E-16  8.213123E-07  4.649904E-09 -1.074741E-15 -1.174508E-18  4.649904E-09  0.000000E+00  0.000000E+00  0.000000E+00  0.000000E+00  0.000000E+00  0.000000E+00  0.000000E+00  0.000000E+00  1.001608E+00 -1.822862E-07 -2.357597E-10  1.001608E+00                                                                                                                                                                                                                                                                                                                                                                                                                                                                                              
  6.250000E+02  1.250000E+02 -5.225000E+03  8.213135E-07 -2.148946E-12 -1.633379E-15  8.213135E-07  4.649911E-09 -1.217766E-14 -9.256041E-18  4.649911E-09  0.000000E+00  0.000000E+00  0.000000E+00  0.000000E+00  0.000000E+00  0.000000E+00  0.000000E+00  0.000000E+00  1.001609E+00 -2.065503E-06 -1.592487E-09  1.001609E+00                                                                                                                                                                                                                                                                                                                                                                                                                                                                                              
  8.750000E+02  1.250000E+02 -5.225000E+03  8.213307E-07 -1.383339E-11  1.074392E-16  8.213307E-07  4.650008E-09 -7.839114E-14  6.088369E-19  4.650008E-09  0.000000E+00  0.000000E+00  0.000000E+00  0.000000E+00  0.000000E+00  0.000000E+00  0.000000E+00  0.000000E+00  1.001626E+00 -1.329963E-05  8.352026E-11  1.001626E+00                                                                                                                                                                                                                                                                                                                                                                                                                                                                                              
  1.050000E+03  1.250000E+02 -5.225000E+03  8.214737E-07  1.311998E-15 -1.653429E-15  8.214737E-07  4.650822E-09  7.434838E-18 -9.369661E-18  4.650822E-09  0.000000E+00  0.000000E+00  0.000000E+00  0.000000E+00  0.000000E+00  0.000000E+00  0.000000E+00  0.000000E+00  1.001777E+00  1.264049E-09 -1.626670E-09  1.001777E+00                                                                                                                                                                                                                                                                                                                                                                                                                                                                                              
  1.225000E+03  1.250000E+02 -5.225000E+03  8.213306E-07  1.383178E-11  9.961567E-16  8.213306E-07  4.650008E-09  7.838203E-14  5.645027E-18  4.650008E-09  0.000000E+00  0.000000E+00  0.000000E+00  0.000000E+00  0.000000E+00  0.000000E+00  0.000000E+00  0.000000E+00  1.001626E+00  1.329804E-05  9.652552E-10  1.001626E+00                                                                                                                                                                                                                                                                                                                                                                                                                                                                                              
  1.475000E+03  1.250000E+02 -5.225000E+03  8.213136E-07  2.145689E-12  4.684363E-16  8.213136E-07  4.649911E-09  1.215920E-14  2.654538E-18  4.649911E-09  0.000000E+00  0.000000E+00  0.000000E+00  0.000000E+00  0.000000E+00  0.000000E+00  0.000000E+00  0.000000E+00  1.001609E+00  2.062355E-06  4.488578E-10  1.001609E+00                                                                                                                                                                                                                                                                                                                                                                                                                                                                                              
  1.725000E+03  1.250000E+02 -5.225000E+03  8.213123E-07  1.912974E-13  1.722811E-15  8.213123E-07  4.649904E-09  1.084045E-15  9.762836E-18  4.649904E-09  0.000000E+00  0.000000E+00  0.000000E+00  0.000000E+00  0.000000E+00  0.000000E+00  0.000000E+00  0.000000E+00  1.001608E+00  1.838741E-07  1.679389E-09  1.001608E+00                                                                                                                                                                                                                                                                                                                                                                                                                                                                                              
  1.975000E+03  1.250000E+02 -5.225000E+03  8.213121E-07  1.272618E-14 -2.421535E-15  8.213121E-07  4.649903E-09  7.211680E-17 -1.372237E-17  4.649903E-09  0.000000E+00  0.000000E+00  0.000000E+00  0.000000E+00  0.000000E+00  0.000000E+00  0.000000E+00  0.000000E+00  1.001608E+00  1.222518E-08 -2.317669E-09  1.001608E+00                                                                                                                                                                                                                                                                                                                                                                                                                                                                                              
  1.250000E+02  1.250000E+02 -4.975000E+03  1.206850E-06  5.015220E-14 -6.447859E-16  1.206850E-06  6.765294E-09  2.814221E-16 -3.618127E-18  6.765294E-09  0.000000E+00  0.000000E+00  0.000000E+00  0.000000E+00  0.000000E+00  0.000000E+00  0.000000E+00  0.000000E+00  1.326631E+00  4.597269E-08 -5.372677E-10  1.326631E+00                                                                                                                                                                                                                                                                                                                                                                                                                                                                                              
  3.750000E+02  1.250000E+02 -4.975000E+03  1.206850E-06  1.500236E-13  2.085640E-15  1.206850E-06  6.765296E-09  8.418368E-16  1.170328E-17  6.765296E-09  0.000000E+00  0.000000E+00  0.000000E+00  0.000000E+00  0.000000E+00  0.000000E+00  0.000000E+00  0.000000E+00  1.326631E+00  1.376518E-07  1.872644E-09  1.326631E+00                                                                                                                                                                                                                                                                                                                                                                                                                                                                                              
  6.250000E+02  1.250000E+02 -4.975000E+03  1.206851E-06  9.792999E-14 -3.304467E-15  1.206851E-06  6.765303E-09  5.495206E-16 -1.854256E-17  6.765303E-09  0.000000E+00  0.000000E+00  0.000000E+00  0.000000E+00  0.000000E+00  0.000000E+00  0.000000E+00  0.000000E+00  1.326632E+00  8.980110E-08 -3.091793E-09  1.326632E+00                                                                                                                                                                                                                                                                                                                                                                                                                                                                                              
  8.750000E+02  1.250000E+02 -4.975000E+03  1.206855E-06 -5.056460E-13 -1.409566E-15  1.206855E-06  6.765321E-09 -2.837363E-15 -7.909584E-18  6.765321E-09  0.000000E+00  0.000000E+00  0.000000E+00  0.000000E+00  0.000000E+00  0.000000E+00  0.000000E+00  0.000000E+00  1.326635E+00 -4.637576E-07 -1.266642E-09  1.326635E+00                                                                                                                                                                                                                                                                                                                                                                                                                                                                                              
  1.050000E+03  1.250000E+02 -4.975000E+03  1.206864E-06  1.140050E-15 -2.292402E-15  1.206864E-06  6.765372E-09  6.397232E-18 -1.286350E-17  6.765372E-09  0.000000E+00  0.000000E+00  0.000000E+00  0.000000E+00  0.000000E+00  0.000000E+00  0.000000E+00  0.000000E+00  1.326644E+00  1.069038E-09 -2.157118E-09  1.326644E+00                                                                                                                                                                                                                                                                                                                                                                                                                                                                                              
  1.225000E+03  1.250000E+02 -4.975000E+03  1.206855E-06  5.014996E-13  1.282747E-15  1.206855E-06  6.765321E-09  2.814096E-15  7.197957E-18  6.765321E-09  0.000000E+00  0.000000E+00  0.000000E+00  0.000000E+00  0.000000E+00  0.000000E+00  0.000000E+00  0.000000E+00  1.326635E+00  4.598650E-07  1.206581E-09  1.326635E+00                                                                                                                                                                                                                                                                                                                                                                                                                                                                                              
  1.475000E+03  1.250000E+02 -4.975000E+03  1.206851E-06 -9.809179E-14  1.080145E-15  1.206851E-06  6.765303E-09 -5.504285E-16  6.061083E-18  6.765303E-09  0.000000E+00  0.000000E+00  0.000000E+00  0.000000E+00  0.000000E+00  0.000000E+00  0.000000E+00  0.000000E+00  1.326632E+00 -8.994920E-08  1.014158E-09  1.326632E+00                                                                                                                                                                                                                                                                                                                                                                                                                                                                                              
  1.725000E+03  1.250000E+02 -4.975000E+03  1.206850E-06 -1.509783E-13  3.843448E-15  1.206850E-06  6.765296E-09 -8.471938E-16  2.156698E-17  6.765296E-09  0.000000E+00  0.000000E+00  0.000000E+00  0.000000E+00  0.000000E+00  0.000000E+00  0.000000E+00  0.000000E+00  1.326631E+00 -1.384839E-07  3.540033E-09  1.326631E+00                                                                                                                                                                                                                                                                                                                                                                                                                                                                                              
  1.975000E+03  1.250000E+02 -4.975000E+03  1.206850E-06 -5.623157E-14  3.337722E-15  1.206850E-06  6.765293E-09 -3.155357E-16  1.872917E-17  6.765293E-09  0.000000E+00  0.000000E+00  0.000000E+00  0.000000E+00  0.000000E+00  0.000000E+00  0.000000E+00  0.000000E+00  1.326631E+00 -5.161832E-08  3.179259E-09  1.326631E+00                                                                                                                                                                                                                                                                                                                                                                                                                                                                                              
  1.250000E+02  1.250000E+02 -4.725000E+03  3.475528E-06  4.071272E-13 -2.322638E-14  3.475528E-06  1.930399E-08  2.264612E-15 -1.291948E-16  1.930399E-08  0.000000E+00  0.000000E+00  0.000000E+00  0.000000E+00  0.000000E+00  0.000000E+00  0.000000E+00  0.000000E+00  3.264639E+00  3.523404E-07 -2.156739E-08  3.264639E+00                                                                                                                                                                                                                                                                                                                                                                                                                                                                                              
  3.750000E+02  1.250000E+02 -4.725000E+03  3.475530E-06  1.376664E-12  3.371106E-14  3.475530E-06  1.930400E-08  7.657581E-15  1.875150E-16  1.930400E-08  0.000000E+00  0.000000E+00  0.000000E+00  0.000000E+00  0.000000E+00  0.000000E+00  0.000000E+00  0.000000E+00  3.264640E+00  1.199161E-06  3.071618E-08  3.264640E+00                                                                                                                                                                                                                                                                                                                                                                                                                                                                                              
  6.250000E+02  1.250000E+02 -4.725000E+03  3.475533E-06  2.283940E-12  8.962328E-15  3.475533E-06  1.930402E-08  1.270423E-14  4.985221E-17  1.930402E-08  0.000000E+00  0.000000E+00  0.000000E+00  0.000000E+00  0.000000E+00  0.000000E+00  0.000000E+00  0.000000E+00  3.264641E+00  1.992567E-06  8.210666E-09  3.264641E+00                                                                                                                                                                                                                                                                                                                                                                                                                                                                                              
  8.750000E+02  1.250000E+02 -4.725000E+03  3.475538E-06  2.102201E-12 -2.091394E-14  3.475538E-06  1.930405E-08  1.169332E-14 -1.163321E-16  1.930405E-08  0.000000E+00  0.000000E+00  0.000000E+00  0.000000E+00  0.000000E+00  0.000000E+00  0.000000E+00  0.000000E+00  3.264635E+00  1.816869E-06 -1.925645E-08  3.264635E+00                                                                                                                                                                                                                                                                                                                                                                                                                                                                                              
  1.050000E+03  1.250000E+02 -4.725000E+03  3.475545E-06 -1.293550E-14  4.724242E-15  3.475545E-06  1.930411E-08 -7.195269E-17  2.627821E-17  1.930411E-08  0.000000E+00  0.000000E+00  0.000000E+00  0.000000E+00  0.000000E+00  0.000000E+00  0.000000E+00  0.000000E+00  3.264595E+00 -1.173823E-08  4.028909E-09  3.264595E+00                                                                                                                                                                                                                                                                                                                                                                                                                                                                                              
  1.225000E+03  1.250000E+02 -4.725000E+03  3.475538E-06 -2.113365E-12 -1.070716E-15  3.475538E-06  1.930405E-08 -1.175542E-14 -5.955772E-18  1.930405E-08  0.000000E+00  0.000000E+00  0.000000E+00  0.000000E+00  0.000000E+00  0.000000E+00  0.000000E+00  0.000000E+00  3.264635E+00 -1.827274E-06 -1.016204E-09  3.264635E+00                                                                                                                                                                                                                                                                                                                                                                                                                                                                                              
  1.475000E+03  1.250000E+02 -4.725000E+03  3.475533E-06 -2.271315E-12 -9.875304E-15  3.475533E-06  1.930402E-08 -1.263400E-14 -5.493057E-17  1.930402E-08  0.000000E+00  0.000000E+00  0.000000E+00  0.000000E+00  0.000000E+00  0.000000E+00  0.000000E+00  0.000000E+00  3.264641E+00 -1.981100E-06 -8.854892E-09  3.264641E+00                                                                                                                                                                                                                                                                                                                                                                                                                                                                                              
  1.725000E+03  1.250000E+02 -4.725000E+03  3.475530E-06 -1.416454E-12  3.081258E-14  3.475530E-06  1.930400E-08 -7.878908E-15  1.713925E-16  1.930400E-08  0.000000E+00  0.000000E+00  0.000000E+00  0.000000E+00  0.000000E+00  0.000000E+00  0.000000E+00  0.000000E+00  3.264640E+00 -1.235493E-06  2.788688E-08  3.264640E+00                                                                                                                                                                                                                                                                                                                                                                                                                                                                                              