Title="TOUGHREACT V3.30-OMP flowvector.tec: Liq & Gas Fluxes (kg/s/m^2), Pore Velocities (m/s), & Heat Fluxes (J/s/m2)"                                                                                                                                                                                                                                                                                                                                                                                                                                                                                                                                                                                                                                                                                                         
Variables= "X(m)"     "Y(m)"      "Z(m)"     "FluxLiq"   "FluxLiq_X"   "FluxLiq_Y"   "FluxLiq_Z"   "PorVelLiq"  "PorVelLiqX"  "PorVelLiqY"  "PorVelLiqZ"     "FluxGas"   "FluxGas_X"   "FluxGas_Y"   "FluxGas_Z"   "PorVelGas"  "PorVelGasX"  "PorVelGasY"  "PorVelGasZ"    "HeatFlux"  "HeatFlux_X"  "HeatFlux_Y"  "HeatFlux_Z"                                                                                                                                                                                                                                                                                                                                                                                                                                                                                                
Zone T= "1.00000000E+06 sec" I=     9 J=    10 K=    23 F=Point
  1.250000E+02  1.250000E+02 -5.425000E+03  4.634296E-07 -4.577575E-17 -1.158497E-15  4.634296E-07  2.636895E-09 -2.615269E-19 -6.618748E-18  2.636895E-09  0.000000E+00  0.000000E+00  0.000000E+00  0.000000E+00  0.000000E+00  0.000000E+00  0.000000E+00  0.000000E+00  5.616361E-01 -3.666983E-11 -1.165777E-09  5.616361E-01                                                                                                                                                                                                                                                                                                                                                                                                                                                                                              
  3.750000E+02  1.250000E+02 -5.425000E+03  4.634296E-07 -3.044639E-15  2.757391E-15  4.634296E-07  2.636895E-09 -1.739469E-17  1.575358E-17  2.636895E-09  0.000000E+00  0.000000E+00  0.000000E+00  0.000000E+00  0.000000E+00  0.000000E+00  0.000000E+00  0.000000E+00  5.616361E-01 -3.054612E-09  2.809736E-09  5.616361E-01                                                                                                                                                                                                                                                                                                                                                                                                                                                                                              
  6.250000E+02  1.250000E+02 -5.425000E+03  4.634296E-07 -3.047579E-13 -9.524614E-16  4.634296E-07  2.636895E-09 -1.741149E-15 -5.441621E-18  2.636895E-09  0.000000E+00  0.000000E+00  0.000000E+00  0.000000E+00  0.000000E+00  0.000000E+00  0.000000E+00  0.000000E+00  5.616361E-01 -3.037209E-07 -9.644274E-10  5.616361E-01                                                                                                                                                                                                                                                                                                                                                                                                                                                                                              
  8.750000E+02  1.250000E+02 -5.425000E+03  4.634299E-07 -3.296801E-11 -3.483784E-15  4.634299E-07  2.636898E-09 -1.883535E-13 -1.990362E-17  2.636898E-09  0.000000E+00  0.000000E+00  0.000000E+00  0.000000E+00  0.000000E+00  0.000000E+00  0.000000E+00  0.000000E+00  5.616365E-01 -3.373616E-05 -3.558707E-09  5.616365E-01                                                                                                                                                                                                                                                                                                                                                                                                                                                                                              
  1.050000E+03  1.250000E+02 -5.425000E+03  4.634585E-07  1.608813E-16 -6.975177E-15  4.634585E-07  2.637060E-09  9.191502E-19 -3.985072E-17  2.637060E-09  0.000000E+00  0.000000E+00  0.000000E+00  0.000000E+00  0.000000E+00  0.000000E+00  0.000000E+00  0.000000E+00  5.616658E-01  1.676578E-10 -7.121327E-09  5.616658E-01                                                                                                                                                                                                                                                                                                                                                                                                                                                                                              
  1.225000E+03  1.250000E+02 -5.425000E+03  4.634299E-07  3.296787E-11 -8.028981E-16  4.634299E-07  2.636898E-09  1.883527E-13 -4.587133E-18  2.636898E-09  0.000000E+00  0.000000E+00  0.000000E+00  0.000000E+00  0.000000E+00  0.000000E+00  0.000000E+00  0.000000E+00  5.616365E-01  3.373601E-05 -8.298332E-10  5.616365E-01                                                                                                                                                                                                                                                                                                                                                                                                                                                                                              
  1.475000E+03  1.250000E+02 -5.425000E+03  4.634296E-07  3.068338E-13 -4.635875E-16  4.634296E-07  2.636895E-09  1.753009E-15 -2.648577E-18  2.636895E-09  0.000000E+00  0.000000E+00  0.000000E+00  0.000000E+00  0.000000E+00  0.000000E+00  0.000000E+00  0.000000E+00  5.616361E-01  3.058268E-07 -4.753461E-10  5.616361E-01                                                                                                                                                                                                                                                                                                                                                                                                                                                                                              
  1.725000E+03  1.250000E+02 -5.425000E+03  4.634296E-07  2.009257E-15 -1.617089E-15  4.634296E-07  2.636895E-09  1.147932E-17 -9.238783E-18  2.636895E-09  0.000000E+00  0.000000E+00  0.000000E+00  0.000000E+00  0.000000E+00  0.000000E+00  0.000000E+00  0.000000E+00  5.616361E-01  1.999208E-09 -1.647334E-09  5.616361E-01                                                                                                                                                                                                                                                                                                                                                                                                                                                                                              
  1.975000E+03  1.250000E+02 -5.425000E+03  4.634296E-07 -3.367184E-15 -1.109374E-15  4.634296E-07  2.636895E-09 -1.923746E-17 -6.338098E-18  2.636895E-09  0.000000E+00  0.000000E+00  0.000000E+00  0.000000E+00  0.000000E+00  0.000000E+00  0.000000E+00  0.000000E+00  5.616361E-01 -3.434844E-09 -1.133510E-09  5.616361E-01                                                                                                                                                                                                                                                                                                                                                                                                                                                                                              
  1.250000E+02  1.250000E+02 -5.225000E+03  9.082203E-07 -5.889461E-17  3.792058E-17  9.082203E-07  5.144982E-09 -3.337406E-19  2.148862E-19  5.144982E-09  0.000000E+00  0.000000E+00  0.000000E+00  0.000000E+00  0.000000E+00  0.000000E+00  0.000000E+00  0.000000E+00  1.088936E+00 -5.924350E-11  3.807390E-11  1.088936E+00                                                                                                                                                                                                                                                                                                                                                                                                                                                                                              
  3.750000E+02  1.250000E+02 -5.225000E+03  9.082203E-07  2.492077E-16  3.292514E-16  9.082203E-07  5.144982E-09  1.412196E-18  1.865783E-18  5.144982E-09  0.000000E+00  0.000000E+00  0.000000E+00  0.000000E+00  0.000000E+00  0.000000E+00  0.000000E+00  0.000000E+00  1.088936E+00  2.434979E-10  3.244362E-10  1.088936E+00                                                                                                                                                                                                                                                                                                                                                                                                                                                                                              
  6.250000E+02  1.250000E+02 -5.225000E+03  9.082203E-07 -4.645057E-15  1.966169E-16  9.082203E-07  5.144982E-09 -2.632234E-17  1.114178E-18  5.144982E-09  0.000000E+00  0.000000E+00  0.000000E+00  0.000000E+00  0.000000E+00  0.000000E+00  0.000000E+00  0.000000E+00  1.088936E+00 -4.455027E-09  1.951051E-10  1.088936E+00                                                                                                                                                                                                                                                                                                                                                                                                                                                                                              
  8.750000E+02  1.250000E+02 -5.225000E+03  9.082207E-07 -3.639795E-13 -3.287844E-16  9.082207E-07  5.144984E-09 -2.062578E-15 -1.863137E-18  5.144984E-09  0.000000E+00  0.000000E+00  0.000000E+00  0.000000E+00  0.000000E+00  0.000000E+00  0.000000E+00  0.000000E+00  1.088937E+00 -3.498816E-07 -3.237579E-10  1.088937E+00                                                                                                                                                                                                                                                                                                                                                                                                                                                                                              
  1.050000E+03  1.250000E+02 -5.225000E+03  9.082496E-07 -3.738831E-16 -1.781528E-16  9.082496E-07  5.145148E-09 -2.118699E-18 -1.009546E-18  5.145148E-09  0.000000E+00  0.000000E+00  0.000000E+00  0.000000E+00  0.000000E+00  0.000000E+00  0.000000E+00  0.000000E+00  1.088966E+00 -3.688429E-10 -1.735378E-10  1.088966E+00                                                                                                                                                                                                                                                                                                                                                                                                                                                                                              
  1.225000E+03  1.250000E+02 -5.225000E+03  9.082207E-07  3.639348E-13  2.531670E-16  9.082207E-07  5.144984E-09  2.062325E-15  1.434633E-18  5.144984E-09  0.000000E+00  0.000000E+00  0.000000E+00  0.000000E+00  0.000000E+00  0.000000E+00  0.000000E+00  0.000000E+00  1.088937E+00  3.498383E-07  2.500960E-10  1.088937E+00                                                                                                                                                                                                                                                                                                                                                                                                                                                                                              
  1.475000E+03  1.250000E+02 -5.225000E+03  9.082203E-07  5.060286E-15 -2.083005E-16  9.082203E-07  5.144982E-09  2.867534E-17 -1.180385E-18  5.144982E-09  0.000000E+00  0.000000E+00  0.000000E+00  0.000000E+00  0.000000E+00  0.000000E+00  0.000000E+00  0.000000E+00  1.088936E+00  4.863892E-09 -2.061215E-10  1.088936E+00                                                                                                                                                                                                                                                                                                                                                                                                                                                                                              
  1.725000E+03  1.250000E+02 -5.225000E+03  9.082203E-07 -4.225450E-16 -1.171277E-16  9.082203E-07  5.144982E-09 -2.394454E-18 -6.637325E-19  5.144982E-09  0.000000E+00  0.000000E+00  0.000000E+00  0.000000E+00  0.000000E+00  0.000000E+00  0.000000E+00  0.000000E+00  1.088936E+00 -4.148493E-10 -1.152648E-10  1.088936E+00                                                                                                                                                                                                                                                                                                                                                                                                                                                                                              
  1.975000E+03  1.250000E+02 -5.225000E+03  9.082203E-07 -2.004693E-16  1.823748E-16  9.082203E-07  5.144982E-09 -1.136008E-18  1.033471E-18  5.144982E-09  0.000000E+00  0.000000E+00  0.000000E+00  0.000000E+00  0.000000E+00  0.000000E+00  0.000000E+00  0.000000E+00  1.088936E+00 -1.954534E-10  1.800057E-10  1.088936E+00                                                                                                                                                                                                                                                                                                                                                                                                                                                                                              
  1.250000E+02  1.250000E+02 -4.975000E+03  8.983595E-07  5.495278E-15 -6.328537E-17  8.983595E-07  5.041033E-09  3.083474E-17 -3.551027E-19  5.041033E-09  0.000000E+00  0.000000E+00  0.000000E+00  0.000000E+00  0.000000E+00  0.000000E+00  0.000000E+00  0.000000E+00  1.042985E+00  5.046200E-09 -5.854888E-11  1.042985E+00                                                                                                                                                                                                                                                                                                                                                                                                                                                                                              
  3.750000E+02  1.250000E+02 -4.975000E+03  8.983599E-07  1.583856E-14 -1.219390E-18  8.983599E-07  5.041035E-09  8.887226E-17 -6.842158E-21  5.041035E-09  0.000000E+00  0.000000E+00  0.000000E+00  0.000000E+00  0.000000E+00  0.000000E+00  0.000000E+00  0.000000E+00  1.042985E+00  1.452225E-08 -2.098319E-12  1.042985E+00                                                                                                                                                                                                                                                                                                                                                                                                                                                                                              
  6.250000E+02  1.250000E+02 -4.975000E+03  8.983606E-07  2.628594E-14  1.437178E-16  8.983606E-07  5.041039E-09  1.474939E-16  8.064199E-19  5.041039E-09  0.000000E+00  0.000000E+00  0.000000E+00  0.000000E+00  0.000000E+00  0.000000E+00  0.000000E+00  0.000000E+00  1.042986E+00  2.409751E-08  1.352101E-10  1.042986E+00                                                                                                                                                                                                                                                                                                                                                                                                                                                                                              
  8.750000E+02  1.250000E+02 -4.975000E+03  8.983618E-07  3.237432E-14  1.654211E-17  8.983618E-07  5.041046E-09  1.816566E-16  9.281997E-20  5.041046E-09  0.000000E+00  0.000000E+00  0.000000E+00  0.000000E+00  0.000000E+00  0.000000E+00  0.000000E+00  0.000000E+00  1.042987E+00  2.969337E-08  1.431244E-11  1.042987E+00                                                                                                                                                                                                                                                                                                                                                                                                                                                                                              
  1.050000E+03  1.250000E+02 -4.975000E+03  8.983630E-07 -1.384000E-16  3.171358E-17  8.983630E-07  5.041052E-09 -7.765811E-19  1.779491E-19  5.041052E-09  0.000000E+00  0.000000E+00  0.000000E+00  0.000000E+00  0.000000E+00  0.000000E+00  0.000000E+00  0.000000E+00  1.042988E+00 -1.301622E-10  2.910479E-11  1.042988E+00                                                                                                                                                                                                                                                                                                                                                                                                                                                                                              
  1.225000E+03  1.250000E+02 -4.975000E+03  8.983618E-07 -3.196323E-14  2.433202E-16  8.983618E-07  5.041046E-09 -1.793499E-16  1.365302E-18  5.041046E-09  0.000000E+00  0.000000E+00  0.000000E+00  0.000000E+00  0.000000E+00  0.000000E+00  0.000000E+00  0.000000E+00  1.042987E+00 -2.930541E-08  2.290840E-10  1.042987E+00                                                                                                                                                                                                                                                                                                                                                                                                                                                                                              
  1.475000E+03  1.250000E+02 -4.975000E+03  8.983606E-07 -2.620793E-14 -3.775665E-16  8.983606E-07  5.041039E-09 -1.470562E-16 -2.118576E-18  5.041039E-09  0.000000E+00  0.000000E+00  0.000000E+00  0.000000E+00  0.000000E+00  0.000000E+00  0.000000E+00  0.000000E+00  1.042986E+00 -2.402398E-08 -3.563141E-10  1.042986E+00                                                                                                                                                                                                                                                                                                                                                                                                                                                                                              
  1.725000E+03  1.250000E+02 -4.975000E+03  8.983599E-07 -1.579925E-14 -2.651463E-17  8.983599E-07  5.041035E-09 -8.865172E-17 -1.487772E-19  5.041035E-09  0.000000E+00  0.000000E+00  0.000000E+00  0.000000E+00  0.000000E+00  0.000000E+00  0.000000E+00  0.000000E+00  1.042985E+00 -1.448484E-08 -2.650463E-11  1.042985E+00                                                                                                                                                                                                                                                                                                                                                                                                                                                                                              
  1.975000E+03  1.250000E+02 -4.975000E+03  8.983595E-07 -4.984487E-15 -1.972292E-16  8.983595E-07  5.041033E-09 -2.796862E-17 -1.106679E-18  5.041033E-09  0.000000E+00  0.000000E+00  0.000000E+00  0.000000E+00  0.000000E+00  0.000000E+00  0.000000E+00  0.000000E+00  1.042985E+00 -4.564201E-09 -1.849353E-10  1.042985E+00                                                                                                                                                                                                                                                                                                                                                                                                                                                                                              
  1.250000E+02  1.250000E+02 -4.725000E+03  4.089874E-06  3.494765E-13 -7.579151E-15  4.089874E-06  2.268792E-08  1.942617E-15 -4.212983E-17  2.268792E-08  0.000000E+00  0.000000E+00  0.000000E+00  0.000000E+00  0.000000E+00  0.000000E+00  0.000000E+00  0.000000E+00  3.788418E+00  3.047080E-07 -6.812707E-09  3.788418E+00                                                                                                                                                                                                                                                                                                                                                                                                                                                                                              
  3.750000E+02  1.250000E+02 -4.725000E+03  4.089877E-06  1.073270E-12  6.856721E-15  4.089877E-06  2.268793E-08  5.965932E-15  3.811410E-17  2.268793E-08  0.000000E+00  0.000000E+00  0.000000E+00  0.000000E+00  0.000000E+00  0.000000E+00  0.000000E+00  0.000000E+00  3.788421E+00  9.364998E-07  6.215138E-09  3.788421E+00                                                                                                                                                                                                                                                                                                                                                                                                                                                                                              
  6.250000E+02  1.250000E+02 -4.725000E+03  4.089881E-06  1.799409E-12  1.076972E-15  4.089881E-06  2.268796E-08  1.000228E-14  5.986506E-18  2.268796E-08  0.000000E+00  0.000000E+00  0.000000E+00  0.000000E+00  0.000000E+00  0.000000E+00  0.000000E+00  0.000000E+00  3.788425E+00  1.570374E-06  9.769377E-10  3.788425E+00                                                                                                                                                                                                                                                                                                                                                                                                                                                                                              
  8.750000E+02  1.250000E+02 -4.725000E+03  4.089889E-06  2.372731E-12  4.546698E-15  4.089889E-06  2.268800E-08  1.318917E-14  2.527349E-17  2.268800E-08  0.000000E+00  0.000000E+00  0.000000E+00  0.000000E+00  0.000000E+00  0.000000E+00  0.000000E+00  0.000000E+00  3.788431E+00  2.070521E-06  4.166142E-09  3.788431E+00                                                                                                                                                                                                                                                                                                                                                                                                                                                                                              
  1.050000E+03  1.250000E+02 -4.725000E+03  4.089895E-06 -2.970813E-15  2.415749E-15  4.089895E-06  2.268804E-08 -1.651370E-17  1.342830E-17  2.268804E-08  0.000000E+00  0.000000E+00  0.000000E+00  0.000000E+00  0.000000E+00  0.000000E+00  0.000000E+00  0.000000E+00  3.788429E+00 -2.625204E-09  2.178434E-09  3.788429E+00                                                                                                                                                                                                                                                                                                                                                                                                                                                                                              
  1.225000E+03  1.250000E+02 -4.725000E+03  4.089889E-06 -2.368687E-12  7.527084E-15  4.089889E-06  2.268800E-08 -1.316670E-14  4.184041E-17  2.268800E-08  0.000000E+00  0.000000E+00  0.000000E+00  0.000000E+00  0.000000E+00  0.000000E+00  0.000000E+00  0.000000E+00  3.788431E+00 -2.066887E-06  6.755085E-09  3.788431E+00                                                                                                                                                                                                                                                                                                                                                                                                                                                                                              
  1.475000E+03  1.250000E+02 -4.725000E+03  4.089881E-06 -1.798425E-12 -5.038554E-15  4.089881E-06  2.268796E-08 -9.996810E-15 -2.800755E-17  2.268796E-08  0.000000E+00  0.000000E+00  0.000000E+00  0.000000E+00  0.000000E+00  0.000000E+00  0.000000E+00  0.000000E+00  3.788425E+00 -1.569427E-06 -4.513804E-09  3.788425E+00                                                                                                                                                                                                                                                                                                                                                                                                                                                                                              
  1.725000E+03  1.250000E+02 -4.725000E+03  4.089877E-06 -1.078219E-12  5.036504E-15  4.089877E-06  2.268793E-08 -5.993440E-15  2.799615E-17  2.268793E-08  0.000000E+00  0.000000E+00  0.000000E+00  0.000000E+00  0.000000E+00  0.000000E+00  0.000000E+00  0.000000E+00  3.788421E+00 -9.408934E-07  4.438348E-09  3.788421E+00                                                                                                                                                                                                                                                                                                                                                                                                                                                                                              