Title="TOUGHREACT V3.30-OMP flowdata.tec: P,T,SAT & Other Variables"                                                                                                                                                                                                                                                                                                                                                                                                                                                                                                                                                                                                                                                                                                                                                            
Variables= "X(m)"     "Y(m)"      "Z(m)"       "P(Pa)"        "T(C)"      "SatGas"      "SatLiq"          "X1"          "X2"    "Pcap(Pa)"  "DGas_kg/m3"  "DLiq_kg/m3"    "Porosity"  "Perm_X(m2)"  "Perm_Y(m2)"  "Perm_Z(m2)"    "Krel_Gas"    "Krel_Liq"                                                                                                                                                                                                                                                                                                                                                                                                                                                                                                                                                                      
Zone T= "5.00000000E-02 sec" I=     9 J=    10 K=    23 F=Point
  1.250000E+02  1.250000E+02 -5.425000E+03  5.924662E+07  2.270000E+02  0.000000E+00  1.000000E+00  1.000000E+00  0.000000E+00  0.000000E+00  1.324499E+01  8.751901E+02  2.000000E-01  1.000000E-16  1.000000E-16  1.000000E-16  0.000000E+00  1.000000E+00                                                                                                                                                                                                                                                                                                                                                                                                                                                                                                                                                                    
  3.750000E+02  1.250000E+02 -5.425000E+03  5.924662E+07  2.270000E+02  0.000000E+00  1.000000E+00  1.000000E+00  0.000000E+00  0.000000E+00  1.324499E+01  8.751901E+02  2.000000E-01  1.000000E-16  1.000000E-16  1.000000E-16  0.000000E+00  1.000000E+00                                                                                                                                                                                                                                                                                                                                                                                                                                                                                                                                                                    
  6.250000E+02  1.250000E+02 -5.425000E+03  5.924662E+07  2.270000E+02  0.000000E+00  1.000000E+00  1.000000E+00  0.000000E+00  0.000000E+00  1.324499E+01  8.751901E+02  2.000000E-01  1.000000E-16  1.000000E-16  1.000000E-16  0.000000E+00  1.000000E+00                                                                                                                                                                                                                                                                                                                                                                                                                                                                                                                                                                    
  8.750000E+02  1.250000E+02 -5.425000E+03  5.924662E+07  2.270000E+02  0.000000E+00  1.000000E+00  1.000000E+00  0.000000E+00  0.000000E+00  1.324499E+01  8.751901E+02  2.000000E-01  1.000000E-16  1.000000E-16  1.000000E-16  0.000000E+00  1.000000E+00                                                                                                                                                                                                                                                                                                                                                                                                                                                                                                                                                                    
  1.050000E+03  1.250000E+02 -5.425000E+03  5.924662E+07  2.270000E+02  0.000000E+00  1.000000E+00  1.000000E+00  0.000000E+00  0.000000E+00  1.324499E+01  8.751901E+02  2.000000E-01  1.000000E-16  1.000000E-16  1.000000E-16  0.000000E+00  1.000000E+00                                                                                                                                                                                                                                                                                                                                                                                                                                                                                                                                                                    
  1.225000E+03  1.250000E+02 -5.425000E+03  5.924662E+07  2.270000E+02  0.000000E+00  1.000000E+00  1.000000E+00  0.000000E+00  0.000000E+00  1.324499E+01  8.751901E+02  2.000000E-01  1.000000E-16  1.000000E-16  1.000000E-16  0.000000E+00  1.000000E+00                                                                                                                                                                                                                                                                                                                                                                                                                                                                                                                                                                    
  1.475000E+03  1.250000E+02 -5.425000E+03  5.924662E+07  2.270000E+02  0.000000E+00  1.000000E+00  1.000000E+00  0.000000E+00  0.000000E+00  1.324499E+01  8.751901E+02  2.000000E-01  1.000000E-16  1.000000E-16  1.000000E-16  0.000000E+00  1.000000E+00                                                                                                                                                                                                                                                                                                                                                                                                                                                                                                                                                                    
  1.725000E+03  1.250000E+02 -5.425000E+03  5.924662E+07  2.270000E+02  0.000000E+00  1.000000E+00  1.000000E+00  0.000000E+00  0.000000E+00  1.324499E+01  8.751901E+02  2.000000E-01  1.000000E-16  1.000000E-16  1.000000E-16  0.000000E+00  1.000000E+00                                                                                                                                                                                                                                                                                                                                                                                                                                                                                                                                                                    
  1.975000E+03  1.250000E+02 -5.425000E+03  5.924662E+07  2.270000E+02  0.000000E+00  1.000000E+00  1.000000E+00  0.000000E+00  0.000000E+00  1.324499E+01  8.751901E+02  2.000000E-01  1.000000E-16  1.000000E-16  1.000000E-16  0.000000E+00  1.000000E+00                                                                                                                                                                                                                                                                                                                                                                                                                                                                                                                                                                    
  1.250000E+02  1.250000E+02 -5.225000E+03  5.723763E+07  2.190000E+02  0.000000E+00  1.000000E+00  1.000000E+00  0.000000E+00  0.000000E+00  1.140516E+01  8.823402E+02  2.000000E-01  1.000000E-16  1.000000E-16  1.000000E-16  0.000000E+00  1.000000E+00                                                                                                                                                                                                                                                                                                                                                                                                                                                                                                                                                                    
  3.750000E+02  1.250000E+02 -5.225000E+03  5.723763E+07  2.190000E+02  0.000000E+00  1.000000E+00  1.000000E+00  0.000000E+00  0.000000E+00  1.140516E+01  8.823402E+02  2.000000E-01  1.000000E-16  1.000000E-16  1.000000E-16  0.000000E+00  1.000000E+00                                                                                                                                                                                                                                                                                                                                                                                                                                                                                                                                                                    
  6.250000E+02  1.250000E+02 -5.225000E+03  5.723763E+07  2.190000E+02  0.000000E+00  1.000000E+00  1.000000E+00  0.000000E+00  0.000000E+00  1.140516E+01  8.823402E+02  2.000000E-01  1.000000E-16  1.000000E-16  1.000000E-16  0.000000E+00  1.000000E+00                                                                                                                                                                                                                                                                                                                                                                                                                                                                                                                                                                    
  8.750000E+02  1.250000E+02 -5.225000E+03  5.723763E+07  2.190000E+02  0.000000E+00  1.000000E+00  1.000000E+00  0.000000E+00  0.000000E+00  1.140516E+01  8.823402E+02  2.000000E-01  1.000000E-16  1.000000E-16  1.000000E-16  0.000000E+00  1.000000E+00                                                                                                                                                                                                                                                                                                                                                                                                                                                                                                                                                                    
  1.050000E+03  1.250000E+02 -5.225000E+03  5.723763E+07  2.190000E+02  0.000000E+00  1.000000E+00  1.000000E+00  0.000000E+00  0.000000E+00  1.140516E+01  8.823402E+02  2.000000E-01  1.000000E-16  1.000000E-16  1.000000E-16  0.000000E+00  1.000000E+00                                                                                                                                                                                                                                                                                                                                                                                                                                                                                                                                                                    
  1.225000E+03  1.250000E+02 -5.225000E+03  5.723763E+07  2.190000E+02  0.000000E+00  1.000000E+00  1.000000E+00  0.000000E+00  0.000000E+00  1.140516E+01  8.823402E+02  2.000000E-01  1.000000E-16  1.000000E-16  1.000000E-16  0.000000E+00  1.000000E+00                                                                                                                                                                                                                                                                                                                                                                                                                                                                                                                                                                    
  1.475000E+03  1.250000E+02 -5.225000E+03  5.723763E+07  2.190000E+02  0.000000E+00  1.000000E+00  1.000000E+00  0.000000E+00  0.000000E+00  1.140516E+01  8.823402E+02  2.000000E-01  1.000000E-16  1.000000E-16  1.000000E-16  0.000000E+00  1.000000E+00                                                                                                                                                                                                                                                                                                                                                                                                                                                                                                                                                                    
  1.725000E+03  1.250000E+02 -5.225000E+03  5.723763E+07  2.190000E+02  0.000000E+00  1.000000E+00  1.000000E+00  0.000000E+00  0.000000E+00  1.140516E+01  8.823402E+02  2.000000E-01  1.000000E-16  1.000000E-16  1.000000E-16  0.000000E+00  1.000000E+00                                                                                                                                                                                                                                                                                                                                                                                                                                                                                                                                                                    
  1.975000E+03  1.250000E+02 -5.225000E+03  5.723763E+07  2.190000E+02  0.000000E+00  1.000000E+00  1.000000E+00  0.000000E+00  0.000000E+00  1.140516E+01  8.823402E+02  2.000000E-01  1.000000E-16  1.000000E-16  1.000000E-16  0.000000E+00  1.000000E+00                                                                                                                                                                                                                                                                                                                                                                                                                                                                                                                                                                    
  1.250000E+02  1.250000E+02 -4.975000E+03  5.472638E+07  2.090000E+02  0.000000E+00  1.000000E+00  1.000000E+00  0.000000E+00  0.000000E+00  9.407597E+00  8.910851E+02  2.000000E-01  1.000000E-16  1.000000E-16  1.000000E-16  0.000000E+00  1.000000E+00                                                                                                                                                                                                                                                                                                                                                                                                                                                                                                                                                                    
  3.750000E+02  1.250000E+02 -4.975000E+03  5.472638E+07  2.090000E+02  0.000000E+00  1.000000E+00  1.000000E+00  0.000000E+00  0.000000E+00  9.407597E+00  8.910851E+02  2.000000E-01  1.000000E-16  1.000000E-16  1.000000E-16  0.000000E+00  1.000000E+00                                                                                                                                                                                                                                                                                                                                                                                                                                                                                                                                                                    
  6.250000E+02  1.250000E+02 -4.975000E+03  5.472638E+07  2.090000E+02  0.000000E+00  1.000000E+00  1.000000E+00  0.000000E+00  0.000000E+00  9.407597E+00  8.910851E+02  2.000000E-01  1.000000E-16  1.000000E-16  1.000000E-16  0.000000E+00  1.000000E+00                                                                                                                                                                                                                                                                                                                                                                                                                                                                                                                                                                    
  8.750000E+02  1.250000E+02 -4.975000E+03  5.472638E+07  2.090000E+02  0.000000E+00  1.000000E+00  1.000000E+00  0.000000E+00  0.000000E+00  9.407597E+00  8.910851E+02  2.000000E-01  1.000000E-16  1.000000E-16  1.000000E-16  0.000000E+00  1.000000E+00                                                                                                                                                                                                                                                                                                                                                                                                                                                                                                                                                                    
  1.050000E+03  1.250000E+02 -4.975000E+03  5.472638E+07  2.090000E+02  0.000000E+00  1.000000E+00  1.000000E+00  0.000000E+00  0.000000E+00  9.407597E+00  8.910851E+02  2.000000E-01  1.000000E-16  1.000000E-16  1.000000E-16  0.000000E+00  1.000000E+00                                                                                                                                                                                                                                                                                                                                                                                                                                                                                                                                                                    
  1.225000E+03  1.250000E+02 -4.975000E+03  5.472638E+07  2.090000E+02  0.000000E+00  1.000000E+00  1.000000E+00  0.000000E+00  0.000000E+00  9.407597E+00  8.910851E+02  2.000000E-01  1.000000E-16  1.000000E-16  1.000000E-16  0.000000E+00  1.000000E+00                                                                                                                                                                                                                                                                                                                                                                                                                                                                                                                                                                    
  1.475000E+03  1.250000E+02 -4.975000E+03  5.472638E+07  2.090000E+02  0.000000E+00  1.000000E+00  1.000000E+00  0.000000E+00  0.000000E+00  9.407597E+00  8.910851E+02  2.000000E-01  1.000000E-16  1.000000E-16  1.000000E-16  0.000000E+00  1.000000E+00                                                                                                                                                                                                                                                                                                                                                                                                                                                                                                                                                                    
  1.725000E+03  1.250000E+02 -4.975000E+03  5.472638E+07  2.090000E+02  0.000000E+00  1.000000E+00  1.000000E+00  0.000000E+00  0.000000E+00  9.407597E+00  8.910851E+02  2.000000E-01  1.000000E-16  1.000000E-16  1.000000E-16  0.000000E+00  1.000000E+00                                                                                                                                                                                                                                                                                                                                                                                                                                                                                                                                                                    
  1.975000E+03  1.250000E+02 -4.975000E+03  5.472638E+07  2.090000E+02  0.000000E+00  1.000000E+00  1.000000E+00  0.000000E+00  0.000000E+00  9.407597E+00  8.910851E+02  2.000000E-01  1.000000E-16  1.000000E-16  1.000000E-16  0.000000E+00  1.000000E+00                                                                                                                                                                                                                                                                                                                                                                                                                                                                                                                                                                    
  1.250000E+02  1.250000E+02 -4.725000E+03  5.221512E+07  1.990000E+02  0.000000E+00  1.000000E+00  1.000000E+00  0.000000E+00  0.000000E+00  7.706193E+00  8.996104E+02  2.000000E-01  1.000000E-16  1.000000E-16  1.000000E-16  0.000000E+00  1.000000E+00                                                                                                                                                                                                                                                                                                                                                                                                                                                                                                                                                                    
  3.750000E+02  1.250000E+02 -4.725000E+03  5.221512E+07  1.990000E+02  0.000000E+00  1.000000E+00  1.000000E+00  0.000000E+00  0.000000E+00  7.706193E+00  8.996104E+02  2.000000E-01  1.000000E-16  1.000000E-16  1.000000E-16  0.000000E+00  1.000000E+00                                                                                                                                                                                                                                                                                                                                                                                                                                                                                                                                                                    
  6.250000E+02  1.250000E+02 -4.725000E+03  5.221512E+07  1.990000E+02  0.000000E+00  1.000000E+00  1.000000E+00  0.000000E+00  0.000000E+00  7.706193E+00  8.996104E+02  2.000000E-01  1.000000E-16  1.000000E-16  1.000000E-16  0.000000E+00  1.000000E+00                                                                                                                                                                                                                                                                                                                                                                                                                                                                                                                                                                    
  8.750000E+02  1.250000E+02 -4.725000E+03  5.221512E+07  1.990000E+02  0.000000E+00  1.000000E+00  1.000000E+00  0.000000E+00  0.000000E+00  7.706193E+00  8.996104E+02  2.000000E-01  1.000000E-16  1.000000E-16  1.000000E-16  0.000000E+00  1.000000E+00                                                                                                                                                                                                                                                                                                                                                                                                                                                                                                                                                                    
  1.050000E+03  1.250000E+02 -4.725000E+03  5.221512E+07  1.990000E+02  0.000000E+00  1.000000E+00  1.000000E+00  0.000000E+00  0.000000E+00  7.706193E+00  8.996104E+02  2.000000E-01  1.000000E-16  1.000000E-16  1.000000E-16  0.000000E+00  1.000000E+00                                                                                                                                                                                                                                                                                                                                                                                                                                                                                                                                                                    
  1.225000E+03  1.250000E+02 -4.725000E+03  5.221512E+07  1.990000E+02  0.000000E+00  1.000000E+00  1.000000E+00  0.000000E+00  0.000000E+00  7.706193E+00  8.996104E+02  2.000000E-01  1.000000E-16  1.000000E-16  1.000000E-16  0.000000E+00  1.000000E+00                                                                                                                                                                                                                                                                                                                                                                                                                                                                                                                                                                    
  1.475000E+03  1.250000E+02 -4.725000E+03  5.221512E+07  1.990000E+02  0.000000E+00  1.000000E+00  1.000000E+00  0.000000E+00  0.000000E+00  7.706193E+00  8.996104E+02  2.000000E-01  1.000000E-16  1.000000E-16  1.000000E-16  0.000000E+00  1.000000E+00                                                                                                                                                                                                                                                                                                                                                                                                                                                                                                                                                                    
  1.725000E+03  1.250000E+02 -4.725000E+03  5.221512E+07  1.990000E+02  0.000000E+00  1.000000E+00  1.000000E+00  0.000000E+00  0.000000E+00  7.706193E+00  8.996104E+02  2.000000E-01  1.000000E-16  1.000000E-16  1.000000E-16  0.000000E+00  1.000000E+00                                                                                                                                                                                                                                                                                                                                                                                                                                                                                                                                                                    