Title="TOUGHREACT V3.30-OMP flowdata.tec: P,T,SAT & Other Variables"                                                                                                                                                                                                                                                                                                                                                                                                                                                                                                                                                                                                                                                                                                                                                            
Variables= "X(m)"     "Y(m)"      "Z(m)"       "P(Pa)"        "T(C)"      "SatGas"      "SatLiq"          "X1"          "X2"    "Pcap(Pa)"  "DGas_kg/m3"  "DLiq_kg/m3"    "Porosity"  "Perm_X(m2)"  "Perm_Y(m2)"  "Perm_Z(m2)"    "Krel_Gas"    "Krel_Liq"                                                                                                                                                                                                                                                                                                                                                                                                                                                                                                                                                                      
Zone T= "1.00000000E+09 sec" I=     7 J=     6 K=    23 F=Point
  2.500000E+02  2.500000E+02 -5.425000E+03  1.076167E+08  3.459157E+01  0.000000E+00  1.000000E+00  1.000000E+00  0.000000E+00  0.000000E+00  3.877605E-02  1.037035E+03  2.002645E-01  1.100000E-17  1.100000E-17  1.100000E-17  0.000000E+00  1.000000E+00                                                                                                                                                                                                                                                                                                                                                                                                                                                                                                                                                                    
  7.500000E+02  2.500000E+02 -5.425000E+03  1.076167E+08  3.459157E+01  0.000000E+00  1.000000E+00  1.000000E+00  0.000000E+00  0.000000E+00  3.877605E-02  1.037035E+03  2.002645E-01  1.100000E-17  1.100000E-17  1.100000E-17  0.000000E+00  1.000000E+00                                                                                                                                                                                                                                                                                                                                                                                                                                                                                                                                                                    
  1.250000E+03  2.500000E+02 -5.425000E+03  1.076167E+08  3.459157E+01  0.000000E+00  1.000000E+00  1.000000E+00  0.000000E+00  0.000000E+00  3.877604E-02  1.037035E+03  2.002646E-01  1.100000E-17  1.100000E-17  1.100000E-17  0.000000E+00  1.000000E+00                                                                                                                                                                                                                                                                                                                                                                                                                                                                                                                                                                    
  1.750000E+03  2.500000E+02 -5.425000E+03  1.076171E+08  3.459158E+01  0.000000E+00  1.000000E+00  1.000000E+00  0.000000E+00  0.000000E+00  3.877606E-02  1.037035E+03  2.002648E-01  1.100000E-17  1.100000E-17  1.100000E-17  0.000000E+00  1.000000E+00                                                                                                                                                                                                                                                                                                                                                                                                                                                                                                                                                                    
  2.250000E+03  2.500000E+02 -5.425000E+03  1.076184E+08  3.459027E+01  0.000000E+00  1.000000E+00  1.000000E+00  0.000000E+00  0.000000E+00  3.877341E-02  1.037036E+03  2.002657E-01  1.100000E-17  1.100000E-17  1.100000E-17  0.000000E+00  1.000000E+00                                                                                                                                                                                                                                                                                                                                                                                                                                                                                                                                                                    
  2.550000E+03  2.500000E+02 -5.425000E+03  1.074439E+08  3.435775E+01  0.000000E+00  1.000000E+00  1.000000E+00  0.000000E+00  0.000000E+00  3.830432E-02  1.037070E+03  3.002287E-01  1.100000E-10  1.100000E-10  1.100000E-10  0.000000E+00  1.000000E+00                                                                                                                                                                                                                                                                                                                                                                                                                                                                                                                                                                    
  2.850000E+03  2.500000E+02 -5.425000E+03  1.076188E+08  3.459028E+01  0.000000E+00  1.000000E+00  1.000000E+00  0.000000E+00  0.000000E+00  3.877344E-02  1.037036E+03  2.002659E-01  1.100000E-17  1.100000E-17  1.100000E-17  0.000000E+00  1.000000E+00                                                                                                                                                                                                                                                                                                                                                                                                                                                                                                                                                                    
  2.500000E+02  2.500000E+02 -5.225000E+03  1.053113E+08  3.008359E+01  0.000000E+00  1.000000E+00  1.000000E+00  0.000000E+00  0.000000E+00  3.050623E-02  1.038045E+03  2.000476E-01  1.100000E-17  1.100000E-17  1.100000E-17  0.000000E+00  1.000000E+00                                                                                                                                                                                                                                                                                                                                                                                                                                                                                                                                                                    
  7.500000E+02  2.500000E+02 -5.225000E+03  1.053113E+08  3.008359E+01  0.000000E+00  1.000000E+00  1.000000E+00  0.000000E+00  0.000000E+00  3.050623E-02  1.038045E+03  2.000476E-01  1.100000E-17  1.100000E-17  1.100000E-17  0.000000E+00  1.000000E+00                                                                                                                                                                                                                                                                                                                                                                                                                                                                                                                                                                    
  1.250000E+03  2.500000E+02 -5.225000E+03  1.053113E+08  3.008359E+01  0.000000E+00  1.000000E+00  1.000000E+00  0.000000E+00  0.000000E+00  3.050623E-02  1.038046E+03  2.000477E-01  1.100000E-17  1.100000E-17  1.100000E-17  0.000000E+00  1.000000E+00                                                                                                                                                                                                                                                                                                                                                                                                                                                                                                                                                                    
  1.750000E+03  2.500000E+02 -5.225000E+03  1.053120E+08  3.008361E+01  0.000000E+00  1.000000E+00  1.000000E+00  0.000000E+00  0.000000E+00  3.050627E-02  1.038046E+03  2.000481E-01  1.100000E-17  1.100000E-17  1.100000E-17  0.000000E+00  1.000000E+00                                                                                                                                                                                                                                                                                                                                                                                                                                                                                                                                                                    
  2.250000E+03  2.500000E+02 -5.225000E+03  1.053291E+08  3.008416E+01  0.000000E+00  1.000000E+00  1.000000E+00  0.000000E+00  0.000000E+00  3.050718E-02  1.038052E+03  2.000590E-01  1.100000E-17  1.100000E-17  1.100000E-17  0.000000E+00  1.000000E+00                                                                                                                                                                                                                                                                                                                                                                                                                                                                                                                                                                    
  2.550000E+03  2.500000E+02 -5.225000E+03  1.054103E+08  3.008096E+01  0.000000E+00  1.000000E+00  1.000000E+00  0.000000E+00  0.000000E+00  3.050189E-02  1.038083E+03  3.001665E-01  1.100000E-10  1.100000E-10  1.100000E-10  0.000000E+00  1.000000E+00                                                                                                                                                                                                                                                                                                                                                                                                                                                                                                                                                                    
  2.850000E+03  2.500000E+02 -5.225000E+03  1.053298E+08  3.008419E+01  0.000000E+00  1.000000E+00  1.000000E+00  0.000000E+00  0.000000E+00  3.050723E-02  1.038052E+03  2.000595E-01  1.100000E-17  1.100000E-17  1.100000E-17  0.000000E+00  1.000000E+00                                                                                                                                                                                                                                                                                                                                                                                                                                                                                                                                                                    
  2.500000E+02  2.500000E+02 -4.975000E+03  1.027392E+08  3.000121E+01  0.000000E+00  1.000000E+00  1.000000E+00  0.000000E+00  0.000000E+00  3.037045E-02  1.037126E+03  2.000082E-01  1.100000E-17  1.100000E-17  1.100000E-17  0.000000E+00  1.000000E+00                                                                                                                                                                                                                                                                                                                                                                                                                                                                                                                                                                    
  7.500000E+02  2.500000E+02 -4.975000E+03  1.027392E+08  3.000121E+01  0.000000E+00  1.000000E+00  1.000000E+00  0.000000E+00  0.000000E+00  3.037045E-02  1.037126E+03  2.000082E-01  1.100000E-17  1.100000E-17  1.100000E-17  0.000000E+00  1.000000E+00                                                                                                                                                                                                                                                                                                                                                                                                                                                                                                                                                                    
  1.250000E+03  2.500000E+02 -4.975000E+03  1.027392E+08  3.000121E+01  0.000000E+00  1.000000E+00  1.000000E+00  0.000000E+00  0.000000E+00  3.037045E-02  1.037126E+03  2.000082E-01  1.100000E-17  1.100000E-17  1.100000E-17  0.000000E+00  1.000000E+00                                                                                                                                                                                                                                                                                                                                                                                                                                                                                                                                                                    
  1.750000E+03  2.500000E+02 -4.975000E+03  1.027399E+08  3.000124E+01  0.000000E+00  1.000000E+00  1.000000E+00  0.000000E+00  0.000000E+00  3.037050E-02  1.037127E+03  2.000087E-01  1.100000E-17  1.100000E-17  1.100000E-17  0.000000E+00  1.000000E+00                                                                                                                                                                                                                                                                                                                                                                                                                                                                                                                                                                    
  2.250000E+03  2.500000E+02 -4.975000E+03  1.027577E+08  3.000186E+01  0.000000E+00  1.000000E+00  1.000000E+00  0.000000E+00  0.000000E+00  3.037151E-02  1.037133E+03  2.000201E-01  1.100000E-17  1.100000E-17  1.100000E-17  0.000000E+00  1.000000E+00                                                                                                                                                                                                                                                                                                                                                                                                                                                                                                                                                                    
  2.550000E+03  2.500000E+02 -4.975000E+03  1.028681E+08  3.000618E+01  0.000000E+00  1.000000E+00  1.000000E+00  0.000000E+00  0.000000E+00  3.037862E-02  1.037172E+03  3.001361E-01  1.100000E-10  1.100000E-10  1.100000E-10  0.000000E+00  1.000000E+00                                                                                                                                                                                                                                                                                                                                                                                                                                                                                                                                                                    
  2.850000E+03  2.500000E+02 -4.975000E+03  1.027584E+08  3.000188E+01  0.000000E+00  1.000000E+00  1.000000E+00  0.000000E+00  0.000000E+00  3.037155E-02  1.037133E+03  2.000205E-01  1.100000E-17  1.100000E-17  1.100000E-17  0.000000E+00  1.000000E+00                                                                                                                                                                                                                                                                                                                                                                                                                                                                                                                                                                    
  2.500000E+02  2.500000E+02 -4.725000E+03  1.002565E+08  3.000133E+01  0.000000E+00  1.000000E+00  1.000000E+00  0.000000E+00  0.000000E+00  3.037064E-02  1.036204E+03  2.000265E-01  1.100000E-17  1.100000E-17  1.100000E-17  0.000000E+00  1.000000E+00                                                                                                                                                                                                                                                                                                                                                                                                                                                                                                                                                                    
  7.500000E+02  2.500000E+02 -4.725000E+03  1.002565E+08  3.000133E+01  0.000000E+00  1.000000E+00  1.000000E+00  0.000000E+00  0.000000E+00  3.037064E-02  1.036204E+03  2.000265E-01  1.100000E-17  1.100000E-17  1.100000E-17  0.000000E+00  1.000000E+00                                                                                                                                                                                                                                                                                                                                                                                                                                                                                                                                                                    
  1.250000E+03  2.500000E+02 -4.725000E+03  1.002566E+08  3.000133E+01  0.000000E+00  1.000000E+00  1.000000E+00  0.000000E+00  0.000000E+00  3.037064E-02  1.036204E+03  2.000265E-01  1.100000E-17  1.100000E-17  1.100000E-17  0.000000E+00  1.000000E+00                                                                                                                                                                                                                                                                                                                                                                                                                                                                                                                                                                    
  1.750000E+03  2.500000E+02 -4.725000E+03  1.002570E+08  3.000134E+01  0.000000E+00  1.000000E+00  1.000000E+00  0.000000E+00  0.000000E+00  3.037067E-02  1.036204E+03  2.000268E-01  1.100000E-17  1.100000E-17  1.100000E-17  0.000000E+00  1.000000E+00                                                                                                                                                                                                                                                                                                                                                                                                                                                                                                                                                                    
  2.250000E+03  2.500000E+02 -4.725000E+03  1.002669E+08  3.000168E+01  0.000000E+00  1.000000E+00  1.000000E+00  0.000000E+00  0.000000E+00  3.037123E-02  1.036207E+03  2.000331E-01  1.100000E-17  1.100000E-17  1.100000E-17  0.000000E+00  1.000000E+00                                                                                                                                                                                                                                                                                                                                                                                                                                                                                                                                                                    
  2.550000E+03  2.500000E+02 -4.725000E+03  1.003282E+08  3.000422E+01  0.000000E+00  1.000000E+00  1.000000E+00  0.000000E+00  0.000000E+00  3.037541E-02  1.036229E+03  3.001086E-01  1.100000E-10  1.100000E-10  1.100000E-10  0.000000E+00  1.000000E+00                                                                                                                                                                                                                                                                                                                                                                                                                                                                                                                                                                    
  2.850000E+03  2.500000E+02 -4.725000E+03  1.002673E+08  3.000170E+01  0.000000E+00  1.000000E+00  1.000000E+00  0.000000E+00  0.000000E+00  3.037125E-02  1.036208E+03  2.000334E-01  1.100000E-17  1.100000E-17  1.100000E-17  0.000000E+00  1.000000E+00                                                                                                                                                                                                                                                                                                                                                                                                                                                                                                                                                                    
  2.500000E+02  2.500000E+02 -4.550000E+03  9.855136E+07  3.000245E+01  0.000000E+00  1.000000E+00  1.000000E+00  0.000000E+00  0.000000E+00  3.037248E-02  1.035568E+03  2.000603E-01  1.100000E-13  1.100000E-13  1.100000E-15  0.000000E+00  1.000000E+00                                                                                                                                                                                                                                                                                                                                                                                                                                                                                                                                                                    
  7.500000E+02  2.500000E+02 -4.550000E+03  9.855137E+07  3.000245E+01  0.000000E+00  1.000000E+00  1.000000E+00  0.000000E+00  0.000000E+00  3.037249E-02  1.035568E+03  2.000603E-01  1.100000E-13  1.100000E-13  1.100000E-15  0.000000E+00  1.000000E+00                                                                                                                                                                                                                                                                                                                                                                                                                                                                                                                                                                    
  1.250000E+03  2.500000E+02 -4.550000E+03  9.855139E+07  3.000246E+01  0.000000E+00  1.000000E+00  1.000000E+00  0.000000E+00  0.000000E+00  3.037250E-02  1.035568E+03  2.000603E-01  1.100000E-13  1.100000E-13  1.100000E-15  0.000000E+00  1.000000E+00                                                                                                                                                                                                                                                                                                                                                                                                                                                                                                                                                                    
  1.750000E+03  2.500000E+02 -4.550000E+03  9.855144E+07  3.000247E+01  0.000000E+00  1.000000E+00  1.000000E+00  0.000000E+00  0.000000E+00  3.037253E-02  1.035568E+03  2.000603E-01  1.100000E-13  1.100000E-13  1.100000E-15  0.000000E+00  1.000000E+00                                                                                                                                                                                                                                                                                                                                                                                                                                                                                                                                                                    
  2.250000E+03  2.500000E+02 -4.550000E+03  9.855154E+07  3.000252E+01  0.000000E+00  1.000000E+00  1.000000E+00  0.000000E+00  0.000000E+00  3.037261E-02  1.035568E+03  2.000604E-01  1.100000E-13  1.100000E-13  1.100000E-15  0.000000E+00  1.000000E+00                                                                                                                                                                                                                                                                                                                                                                                                                                                                                                                                                                    
  2.550000E+03  2.500000E+02 -4.550000E+03  9.855162E+07  3.000241E+01  0.000000E+00  1.000000E+00  1.000000E+00  0.000000E+00  0.000000E+00  3.037243E-02  1.035568E+03  3.000906E-01  1.100000E-10  1.100000E-10  1.100000E-10  0.000000E+00  1.000000E+00                                                                                                                                                                                                                                                                                                                                                                                                                                                                                                                                                                    
  2.850000E+03  2.500000E+02 -4.550000E+03  9.855158E+07  3.000253E+01  0.000000E+00  1.000000E+00  1.000000E+00  0.000000E+00  0.000000E+00  3.037263E-02  1.035568E+03  2.000604E-01  1.100000E-13  1.100000E-13  1.100000E-15  0.000000E+00  1.000000E+00                                                                                                                                                                                                                                                                                                                                                                                                                                                                                                                                                                    