Title="TOUGHREACT V3.30-OMP flowdata.tec: P,T,SAT & Other Variables"                                                                                                                                                                                                                                                                                                                                                                                                                                                                                                                                                                                                                                                                                                                                                            
Variables= "X(m)"     "Y(m)"      "Z(m)"       "P(Pa)"        "T(C)"      "SatGas"      "SatLiq"          "X1"          "X2"    "Pcap(Pa)"  "DGas_kg/m3"  "DLiq_kg/m3"    "Porosity"  "Perm_X(m2)"  "Perm_Y(m2)"  "Perm_Z(m2)"    "Krel_Gas"    "Krel_Liq"                                                                                                                                                                                                                                                                                                                                                                                                                                                                                                                                                                      
Zone T= "1.00000000E+11 sec" I=     7 J=     6 K=    23 F=Point
  2.500000E+02  2.500000E+02 -5.425000E+03  1.107992E+08  1.948377E+02  0.000000E+00  1.000000E+00  1.000000E+00  0.000000E+00  0.000000E+00  7.076313E+00  9.337891E+02  2.032894E-01  1.100000E-17  1.100000E-17  1.100000E-17  0.000000E+00  1.000000E+00                                                                                                                                                                                                                                                                                                                                                                                                                                                                                                                                                                    
  7.500000E+02  2.500000E+02 -5.425000E+03  1.107500E+08  1.946890E+02  0.000000E+00  1.000000E+00  1.000000E+00  0.000000E+00  0.000000E+00  7.054613E+00  9.338934E+02  2.032565E-01  1.100000E-17  1.100000E-17  1.100000E-17  0.000000E+00  1.000000E+00                                                                                                                                                                                                                                                                                                                                                                                                                                                                                                                                                                    
  1.250000E+03  2.500000E+02 -5.425000E+03  1.106346E+08  1.936311E+02  0.000000E+00  1.000000E+00  1.000000E+00  0.000000E+00  0.000000E+00  6.901740E+00  9.347447E+02  2.031750E-01  1.100000E-17  1.100000E-17  1.100000E-17  0.000000E+00  1.000000E+00                                                                                                                                                                                                                                                                                                                                                                                                                                                                                                                                                                    
  1.750000E+03  2.500000E+02 -5.425000E+03  1.104255E+08  1.869151E+02  0.000000E+00  1.000000E+00  1.000000E+00  0.000000E+00  0.000000E+00  5.992554E+00  9.403335E+02  2.029982E-01  1.100000E-17  1.100000E-17  1.100000E-17  0.000000E+00  1.000000E+00                                                                                                                                                                                                                                                                                                                                                                                                                                                                                                                                                                    
  2.250000E+03  2.500000E+02 -5.425000E+03  1.101197E+08  1.498144E+02  0.000000E+00  1.000000E+00  1.000000E+00  0.000000E+00  0.000000E+00  2.536194E+00  9.696673E+02  2.025741E-01  1.100000E-17  1.100000E-17  1.100000E-17  0.000000E+00  1.000000E+00                                                                                                                                                                                                                                                                                                                                                                                                                                                                                                                                                                    
  2.550000E+03  2.500000E+02 -5.425000E+03  1.099489E+08  3.620503E+01  0.000000E+00  1.000000E+00  1.000000E+00  0.000000E+00  0.000000E+00  4.216859E-02  1.037199E+03  3.026617E-01  1.100000E-10  1.100000E-10  1.100000E-10  0.000000E+00  1.000000E+00                                                                                                                                                                                                                                                                                                                                                                                                                                                                                                                                                                    
  2.850000E+03  2.500000E+02 -5.425000E+03  1.099140E+08  1.428004E+02  0.000000E+00  1.000000E+00  1.000000E+00  0.000000E+00  0.000000E+00  2.117425E+00  9.747780E+02  2.023982E-01  1.100000E-17  1.100000E-17  1.100000E-17  0.000000E+00  1.000000E+00                                                                                                                                                                                                                                                                                                                                                                                                                                                                                                                                                                    
  2.500000E+02  2.500000E+02 -5.225000E+03  1.088582E+08  1.305386E+02  0.000000E+00  1.000000E+00  1.000000E+00  0.000000E+00  0.000000E+00  1.519450E+00  9.831497E+02  2.029418E-01  1.100000E-17  1.100000E-17  1.100000E-17  0.000000E+00  1.000000E+00                                                                                                                                                                                                                                                                                                                                                                                                                                                                                                                                                                    
  7.500000E+02  2.500000E+02 -5.225000E+03  1.088113E+08  1.303979E+02  0.000000E+00  1.000000E+00  1.000000E+00  0.000000E+00  0.000000E+00  1.513481E+00  9.832300E+02  2.029105E-01  1.100000E-17  1.100000E-17  1.100000E-17  0.000000E+00  1.000000E+00                                                                                                                                                                                                                                                                                                                                                                                                                                                                                                                                                                    
  1.250000E+03  2.500000E+02 -5.225000E+03  1.087001E+08  1.294543E+02  0.000000E+00  1.000000E+00  1.000000E+00  0.000000E+00  0.000000E+00  1.473932E+00  9.838473E+02  2.028326E-01  1.100000E-17  1.100000E-17  1.100000E-17  0.000000E+00  1.000000E+00                                                                                                                                                                                                                                                                                                                                                                                                                                                                                                                                                                    
  1.750000E+03  2.500000E+02 -5.225000E+03  1.084918E+08  1.237553E+02  0.000000E+00  1.000000E+00  1.000000E+00  0.000000E+00  0.000000E+00  1.252375E+00  9.877089E+02  2.026628E-01  1.100000E-17  1.100000E-17  1.100000E-17  0.000000E+00  1.000000E+00                                                                                                                                                                                                                                                                                                                                                                                                                                                                                                                                                                    
  2.250000E+03  2.500000E+02 -5.225000E+03  1.081559E+08  9.524254E+01  0.000000E+00  1.000000E+00  1.000000E+00  0.000000E+00  0.000000E+00  5.087134E-01  1.006003E+03  2.022719E-01  1.100000E-17  1.100000E-17  1.100000E-17  0.000000E+00  1.000000E+00                                                                                                                                                                                                                                                                                                                                                                                                                                                                                                                                                                    
  2.550000E+03  2.500000E+02 -5.225000E+03  1.079158E+08  3.256040E+01  0.000000E+00  1.000000E+00  1.000000E+00  0.000000E+00  0.000000E+00  3.483926E-02  1.037991E+03  3.026053E-01  1.100000E-10  1.100000E-10  1.100000E-10  0.000000E+00  1.000000E+00                                                                                                                                                                                                                                                                                                                                                                                                                                                                                                                                                                    
  2.850000E+03  2.500000E+02 -5.225000E+03  1.079512E+08  8.930902E+01  0.000000E+00  1.000000E+00  1.000000E+00  0.000000E+00  0.000000E+00  4.131963E-01  1.009477E+03  2.021035E-01  1.100000E-17  1.100000E-17  1.100000E-17  0.000000E+00  1.000000E+00                                                                                                                                                                                                                                                                                                                                                                                                                                                                                                                                                                    
  2.500000E+02  2.500000E+02 -4.975000E+03  1.061771E+08  8.021086E+01  0.000000E+00  1.000000E+00  1.000000E+00  0.000000E+00  0.000000E+00  2.956876E-01  1.014081E+03  2.025255E-01  1.100000E-17  1.100000E-17  1.100000E-17  0.000000E+00  1.000000E+00                                                                                                                                                                                                                                                                                                                                                                                                                                                                                                                                                                    
  7.500000E+02  2.500000E+02 -4.975000E+03  1.061396E+08  8.009038E+01  0.000000E+00  1.000000E+00  1.000000E+00  0.000000E+00  0.000000E+00  2.943407E-01  1.014136E+03  2.025005E-01  1.100000E-17  1.100000E-17  1.100000E-17  0.000000E+00  1.000000E+00                                                                                                                                                                                                                                                                                                                                                                                                                                                                                                                                                                    
  1.250000E+03  2.500000E+02 -4.975000E+03  1.060499E+08  7.941605E+01  0.000000E+00  1.000000E+00  1.000000E+00  0.000000E+00  0.000000E+00  2.868957E-01  1.014482E+03  2.024383E-01  1.100000E-17  1.100000E-17  1.100000E-17  0.000000E+00  1.000000E+00                                                                                                                                                                                                                                                                                                                                                                                                                                                                                                                                                                    
  1.750000E+03  2.500000E+02 -4.975000E+03  1.058768E+08  7.578840E+01  0.000000E+00  1.000000E+00  1.000000E+00  0.000000E+00  0.000000E+00  2.494648E-01  1.016434E+03  2.023042E-01  1.100000E-17  1.100000E-17  1.100000E-17  0.000000E+00  1.000000E+00                                                                                                                                                                                                                                                                                                                                                                                                                                                                                                                                                                    
  2.250000E+03  2.500000E+02 -4.975000E+03  1.055820E+08  5.980038E+01  0.000000E+00  1.000000E+00  1.000000E+00  0.000000E+00  0.000000E+00  1.291076E-01  1.024717E+03  2.020165E-01  1.100000E-17  1.100000E-17  1.100000E-17  0.000000E+00  1.000000E+00                                                                                                                                                                                                                                                                                                                                                                                                                                                                                                                                                                    
  2.550000E+03  2.500000E+02 -4.975000E+03  1.053750E+08  3.175243E+01  0.000000E+00  1.000000E+00  1.000000E+00  0.000000E+00  0.000000E+00  3.337128E-02  1.037391E+03  3.025694E-01  1.100000E-10  1.100000E-10  1.100000E-10  0.000000E+00  1.000000E+00                                                                                                                                                                                                                                                                                                                                                                                                                                                                                                                                                                    
  2.850000E+03  2.500000E+02 -4.975000E+03  1.054144E+08  5.605450E+01  0.000000E+00  1.000000E+00  1.000000E+00  0.000000E+00  0.000000E+00  1.094519E-01  1.026506E+03  2.018855E-01  1.100000E-17  1.100000E-17  1.100000E-17  0.000000E+00  1.000000E+00                                                                                                                                                                                                                                                                                                                                                                                                                                                                                                                                                                    
  2.500000E+02  2.500000E+02 -4.725000E+03  1.032136E+08  5.214717E+01  0.000000E+00  1.000000E+00  1.000000E+00  0.000000E+00  0.000000E+00  9.169427E-02  1.027598E+03  2.020624E-01  1.100000E-17  1.100000E-17  1.100000E-17  0.000000E+00  1.000000E+00                                                                                                                                                                                                                                                                                                                                                                                                                                                                                                                                                                    
  7.500000E+02  2.500000E+02 -4.725000E+03  1.031957E+08  5.202559E+01  0.000000E+00  1.000000E+00  1.000000E+00  0.000000E+00  0.000000E+00  9.118329E-02  1.027649E+03  2.020502E-01  1.100000E-17  1.100000E-17  1.100000E-17  0.000000E+00  1.000000E+00                                                                                                                                                                                                                                                                                                                                                                                                                                                                                                                                                                    
  1.250000E+03  2.500000E+02 -4.725000E+03  1.031527E+08  5.156465E+01  0.000000E+00  1.000000E+00  1.000000E+00  0.000000E+00  0.000000E+00  8.926786E-02  1.027852E+03  2.020195E-01  1.100000E-17  1.100000E-17  1.100000E-17  0.000000E+00  1.000000E+00                                                                                                                                                                                                                                                                                                                                                                                                                                                                                                                                                                    
  1.750000E+03  2.500000E+02 -4.725000E+03  1.030680E+08  4.962534E+01  0.000000E+00  1.000000E+00  1.000000E+00  0.000000E+00  0.000000E+00  8.157658E-02  1.028732E+03  2.019531E-01  1.100000E-17  1.100000E-17  1.100000E-17  0.000000E+00  1.000000E+00                                                                                                                                                                                                                                                                                                                                                                                                                                                                                                                                                                    
  2.250000E+03  2.500000E+02 -4.725000E+03  1.029220E+08  4.237875E+01  0.000000E+00  1.000000E+00  1.000000E+00  0.000000E+00  0.000000E+00  5.759178E-02  1.031972E+03  2.018149E-01  1.100000E-17  1.100000E-17  1.100000E-17  0.000000E+00  1.000000E+00                                                                                                                                                                                                                                                                                                                                                                                                                                                                                                                                                                    
  2.550000E+03  2.500000E+02 -4.725000E+03  1.028366E+08  3.183465E+01  0.000000E+00  1.000000E+00  1.000000E+00  0.000000E+00  0.000000E+00  3.351820E-02  1.036422E+03  3.025439E-01  1.100000E-10  1.100000E-10  1.100000E-10  0.000000E+00  1.000000E+00                                                                                                                                                                                                                                                                                                                                                                                                                                                                                                                                                                    
  2.850000E+03  2.500000E+02 -4.725000E+03  1.028458E+08  4.042220E+01  0.000000E+00  1.000000E+00  1.000000E+00  0.000000E+00  0.000000E+00  5.225561E-02  1.032803E+03  2.017538E-01  1.100000E-17  1.100000E-17  1.100000E-17  0.000000E+00  1.000000E+00                                                                                                                                                                                                                                                                                                                                                                                                                                                                                                                                                                    
  2.500000E+02  2.500000E+02 -4.550000E+03  1.010919E+08  4.200587E+01  0.000000E+00  1.000000E+00  1.000000E+00  0.000000E+00  0.000000E+00  5.654056E-02  1.031473E+03  2.017660E-01  1.100000E-13  1.100000E-13  1.100000E-15  0.000000E+00  1.000000E+00                                                                                                                                                                                                                                                                                                                                                                                                                                                                                                                                                                    
  7.500000E+02  2.500000E+02 -4.550000E+03  1.010896E+08  4.182790E+01  0.000000E+00  1.000000E+00  1.000000E+00  0.000000E+00  0.000000E+00  5.604459E-02  1.031550E+03  2.017634E-01  1.100000E-13  1.100000E-13  1.100000E-15  0.000000E+00  1.000000E+00                                                                                                                                                                                                                                                                                                                                                                                                                                                                                                                                                                    
  1.250000E+03  2.500000E+02 -4.550000E+03  1.010849E+08  4.138193E+01  0.000000E+00  1.000000E+00  1.000000E+00  0.000000E+00  0.000000E+00  5.481800E-02  1.031744E+03  2.017577E-01  1.100000E-13  1.100000E-13  1.100000E-15  0.000000E+00  1.000000E+00                                                                                                                                                                                                                                                                                                                                                                                                                                                                                                                                                                    
  1.750000E+03  2.500000E+02 -4.550000E+03  1.010776E+08  4.010890E+01  0.000000E+00  1.000000E+00  1.000000E+00  0.000000E+00  0.000000E+00  5.144152E-02  1.032297E+03  2.017452E-01  1.100000E-13  1.100000E-13  1.100000E-15  0.000000E+00  1.000000E+00                                                                                                                                                                                                                                                                                                                                                                                                                                                                                                                                                                    
  2.250000E+03  2.500000E+02 -4.550000E+03  1.010676E+08  3.642517E+01  0.000000E+00  1.000000E+00  1.000000E+00  0.000000E+00  0.000000E+00  4.265055E-02  1.033869E+03  2.017165E-01  1.100000E-13  1.100000E-13  1.100000E-15  0.000000E+00  1.000000E+00                                                                                                                                                                                                                                                                                                                                                                                                                                                                                                                                                                    
  2.550000E+03  2.500000E+02 -4.550000E+03  1.010613E+08  3.206077E+01  0.000000E+00  1.000000E+00  1.000000E+00  0.000000E+00  0.000000E+00  3.392511E-02  1.035674E+03  3.025291E-01  1.100000E-10  1.100000E-10  1.100000E-10  0.000000E+00  1.000000E+00                                                                                                                                                                                                                                                                                                                                                                                                                                                                                                                                                                    
  2.850000E+03  2.500000E+02 -4.550000E+03  1.010620E+08  3.525504E+01  0.000000E+00  1.000000E+00  1.000000E+00  0.000000E+00  0.000000E+00  4.014172E-02  1.034358E+03  2.017058E-01  1.100000E-13  1.100000E-13  1.100000E-15  0.000000E+00  1.000000E+00                                                                                                                                                                                                                                                                                                                                                                                                                                                                                                                                                                    