Title="TOUGHREACT V3.30-OMP flowdata.tec: P,T,SAT & Other Variables"                                                                                                                                                                                                                                                                                                                                                                                                                                                                                                                                                                                                                                                                                                                                                            
Variables= "X(m)"     "Y(m)"      "Z(m)"       "P(Pa)"        "T(C)"      "SatGas"      "SatLiq"          "X1"          "X2"    "Pcap(Pa)"  "DGas_kg/m3"  "DLiq_kg/m3"    "Porosity"  "Perm_X(m2)"  "Perm_Y(m2)"  "Perm_Z(m2)"    "Krel_Gas"    "Krel_Liq"                                                                                                                                                                                                                                                                                                                                                                                                                                                                                                                                                                      
Zone T= "1.00000000E+06 sec" I=     7 J=     6 K=    23 F=Point
  2.500000E+02  2.500000E+02 -5.425000E+03  1.072471E+08  3.000473E+01  0.000000E+00  1.000000E+00  1.000000E+00  0.000000E+00  0.000000E+00  3.037624E-02  1.038792E+03  2.000003E-01  1.100000E-17  1.100000E-17  1.100000E-17  0.000000E+00  1.000000E+00                                                                                                                                                                                                                                                                                                                                                                                                                                                                                                                                                                    
  7.500000E+02  2.500000E+02 -5.425000E+03  1.072471E+08  3.000473E+01  0.000000E+00  1.000000E+00  1.000000E+00  0.000000E+00  0.000000E+00  3.037624E-02  1.038792E+03  2.000003E-01  1.100000E-17  1.100000E-17  1.100000E-17  0.000000E+00  1.000000E+00                                                                                                                                                                                                                                                                                                                                                                                                                                                                                                                                                                    
  1.250000E+03  2.500000E+02 -5.425000E+03  1.072471E+08  3.000473E+01  0.000000E+00  1.000000E+00  1.000000E+00  0.000000E+00  0.000000E+00  3.037624E-02  1.038792E+03  2.000003E-01  1.100000E-17  1.100000E-17  1.100000E-17  0.000000E+00  1.000000E+00                                                                                                                                                                                                                                                                                                                                                                                                                                                                                                                                                                    
  1.750000E+03  2.500000E+02 -5.425000E+03  1.072471E+08  3.000473E+01  0.000000E+00  1.000000E+00  1.000000E+00  0.000000E+00  0.000000E+00  3.037624E-02  1.038792E+03  2.000003E-01  1.100000E-17  1.100000E-17  1.100000E-17  0.000000E+00  1.000000E+00                                                                                                                                                                                                                                                                                                                                                                                                                                                                                                                                                                    
  2.250000E+03  2.500000E+02 -5.425000E+03  1.072472E+08  3.000473E+01  0.000000E+00  1.000000E+00  1.000000E+00  0.000000E+00  0.000000E+00  3.037625E-02  1.038792E+03  2.000004E-01  1.100000E-17  1.100000E-17  1.100000E-17  0.000000E+00  1.000000E+00                                                                                                                                                                                                                                                                                                                                                                                                                                                                                                                                                                    
  2.550000E+03  2.500000E+02 -5.425000E+03  1.074531E+08  3.001389E+01  0.000000E+00  1.000000E+00  1.000000E+00  0.000000E+00  0.000000E+00  3.039131E-02  1.038864E+03  3.001984E-01  1.100000E-10  1.100000E-10  1.100000E-10  0.000000E+00  1.000000E+00                                                                                                                                                                                                                                                                                                                                                                                                                                                                                                                                                                    
  2.850000E+03  2.500000E+02 -5.425000E+03  1.072472E+08  3.000473E+01  0.000000E+00  1.000000E+00  1.000000E+00  0.000000E+00  0.000000E+00  3.037625E-02  1.038792E+03  2.000004E-01  1.100000E-17  1.100000E-17  1.100000E-17  0.000000E+00  1.000000E+00                                                                                                                                                                                                                                                                                                                                                                                                                                                                                                                                                                    
  2.500000E+02  2.500000E+02 -5.225000E+03  1.052376E+08  3.000000E+01  0.000000E+00  1.000000E+00  1.000000E+00  0.000000E+00  0.000000E+00  3.036846E-02  1.038052E+03  2.000000E-01  1.100000E-17  1.100000E-17  1.100000E-17  0.000000E+00  1.000000E+00                                                                                                                                                                                                                                                                                                                                                                                                                                                                                                                                                                    
  7.500000E+02  2.500000E+02 -5.225000E+03  1.052376E+08  3.000000E+01  0.000000E+00  1.000000E+00  1.000000E+00  0.000000E+00  0.000000E+00  3.036846E-02  1.038052E+03  2.000000E-01  1.100000E-17  1.100000E-17  1.100000E-17  0.000000E+00  1.000000E+00                                                                                                                                                                                                                                                                                                                                                                                                                                                                                                                                                                    
  1.250000E+03  2.500000E+02 -5.225000E+03  1.052376E+08  3.000000E+01  0.000000E+00  1.000000E+00  1.000000E+00  0.000000E+00  0.000000E+00  3.036846E-02  1.038052E+03  2.000000E-01  1.100000E-17  1.100000E-17  1.100000E-17  0.000000E+00  1.000000E+00                                                                                                                                                                                                                                                                                                                                                                                                                                                                                                                                                                    
  1.750000E+03  2.500000E+02 -5.225000E+03  1.052376E+08  3.000000E+01  0.000000E+00  1.000000E+00  1.000000E+00  0.000000E+00  0.000000E+00  3.036846E-02  1.038052E+03  2.000000E-01  1.100000E-17  1.100000E-17  1.100000E-17  0.000000E+00  1.000000E+00                                                                                                                                                                                                                                                                                                                                                                                                                                                                                                                                                                    
  2.250000E+03  2.500000E+02 -5.225000E+03  1.052377E+08  3.000000E+01  0.000000E+00  1.000000E+00  1.000000E+00  0.000000E+00  0.000000E+00  3.036846E-02  1.038052E+03  2.000000E-01  1.100000E-17  1.100000E-17  1.100000E-17  0.000000E+00  1.000000E+00                                                                                                                                                                                                                                                                                                                                                                                                                                                                                                                                                                    
  2.550000E+03  2.500000E+02 -5.225000E+03  1.054176E+08  3.000797E+01  0.000000E+00  1.000000E+00  1.000000E+00  0.000000E+00  0.000000E+00  3.038158E-02  1.038115E+03  3.001729E-01  1.100000E-10  1.100000E-10  1.100000E-10  0.000000E+00  1.000000E+00                                                                                                                                                                                                                                                                                                                                                                                                                                                                                                                                                                    
  2.850000E+03  2.500000E+02 -5.225000E+03  1.052377E+08  3.000000E+01  0.000000E+00  1.000000E+00  1.000000E+00  0.000000E+00  0.000000E+00  3.036846E-02  1.038052E+03  2.000000E-01  1.100000E-17  1.100000E-17  1.100000E-17  0.000000E+00  1.000000E+00                                                                                                                                                                                                                                                                                                                                                                                                                                                                                                                                                                    
  2.500000E+02  2.500000E+02 -4.975000E+03  1.027264E+08  3.000000E+01  0.000000E+00  1.000000E+00  1.000000E+00  0.000000E+00  0.000000E+00  3.036846E-02  1.037122E+03  2.000000E-01  1.100000E-17  1.100000E-17  1.100000E-17  0.000000E+00  1.000000E+00                                                                                                                                                                                                                                                                                                                                                                                                                                                                                                                                                                    
  7.500000E+02  2.500000E+02 -4.975000E+03  1.027264E+08  3.000000E+01  0.000000E+00  1.000000E+00  1.000000E+00  0.000000E+00  0.000000E+00  3.036846E-02  1.037122E+03  2.000000E-01  1.100000E-17  1.100000E-17  1.100000E-17  0.000000E+00  1.000000E+00                                                                                                                                                                                                                                                                                                                                                                                                                                                                                                                                                                    
  1.250000E+03  2.500000E+02 -4.975000E+03  1.027264E+08  3.000000E+01  0.000000E+00  1.000000E+00  1.000000E+00  0.000000E+00  0.000000E+00  3.036846E-02  1.037122E+03  2.000000E-01  1.100000E-17  1.100000E-17  1.100000E-17  0.000000E+00  1.000000E+00                                                                                                                                                                                                                                                                                                                                                                                                                                                                                                                                                                    
  1.750000E+03  2.500000E+02 -4.975000E+03  1.027264E+08  3.000000E+01  0.000000E+00  1.000000E+00  1.000000E+00  0.000000E+00  0.000000E+00  3.036846E-02  1.037122E+03  2.000000E-01  1.100000E-17  1.100000E-17  1.100000E-17  0.000000E+00  1.000000E+00                                                                                                                                                                                                                                                                                                                                                                                                                                                                                                                                                                    
  2.250000E+03  2.500000E+02 -4.975000E+03  1.027264E+08  3.000000E+01  0.000000E+00  1.000000E+00  1.000000E+00  0.000000E+00  0.000000E+00  3.036846E-02  1.037122E+03  2.000000E-01  1.100000E-17  1.100000E-17  1.100000E-17  0.000000E+00  1.000000E+00                                                                                                                                                                                                                                                                                                                                                                                                                                                                                                                                                                    
  2.550000E+03  2.500000E+02 -4.975000E+03  1.028754E+08  3.000631E+01  0.000000E+00  1.000000E+00  1.000000E+00  0.000000E+00  0.000000E+00  3.037884E-02  1.037175E+03  3.001432E-01  1.100000E-10  1.100000E-10  1.100000E-10  0.000000E+00  1.000000E+00                                                                                                                                                                                                                                                                                                                                                                                                                                                                                                                                                                    
  2.850000E+03  2.500000E+02 -4.975000E+03  1.027264E+08  3.000000E+01  0.000000E+00  1.000000E+00  1.000000E+00  0.000000E+00  0.000000E+00  3.036846E-02  1.037122E+03  2.000000E-01  1.100000E-17  1.100000E-17  1.100000E-17  0.000000E+00  1.000000E+00                                                                                                                                                                                                                                                                                                                                                                                                                                                                                                                                                                    
  2.500000E+02  2.500000E+02 -4.725000E+03  1.002151E+08  3.000000E+01  0.000000E+00  1.000000E+00  1.000000E+00  0.000000E+00  0.000000E+00  3.036846E-02  1.036189E+03  2.000000E-01  1.100000E-17  1.100000E-17  1.100000E-17  0.000000E+00  1.000000E+00                                                                                                                                                                                                                                                                                                                                                                                                                                                                                                                                                                    
  7.500000E+02  2.500000E+02 -4.725000E+03  1.002151E+08  3.000000E+01  0.000000E+00  1.000000E+00  1.000000E+00  0.000000E+00  0.000000E+00  3.036846E-02  1.036189E+03  2.000000E-01  1.100000E-17  1.100000E-17  1.100000E-17  0.000000E+00  1.000000E+00                                                                                                                                                                                                                                                                                                                                                                                                                                                                                                                                                                    
  1.250000E+03  2.500000E+02 -4.725000E+03  1.002151E+08  3.000000E+01  0.000000E+00  1.000000E+00  1.000000E+00  0.000000E+00  0.000000E+00  3.036846E-02  1.036189E+03  2.000000E-01  1.100000E-17  1.100000E-17  1.100000E-17  0.000000E+00  1.000000E+00                                                                                                                                                                                                                                                                                                                                                                                                                                                                                                                                                                    
  1.750000E+03  2.500000E+02 -4.725000E+03  1.002151E+08  3.000000E+01  0.000000E+00  1.000000E+00  1.000000E+00  0.000000E+00  0.000000E+00  3.036846E-02  1.036189E+03  2.000000E-01  1.100000E-17  1.100000E-17  1.100000E-17  0.000000E+00  1.000000E+00                                                                                                                                                                                                                                                                                                                                                                                                                                                                                                                                                                    
  2.250000E+03  2.500000E+02 -4.725000E+03  1.002152E+08  3.000000E+01  0.000000E+00  1.000000E+00  1.000000E+00  0.000000E+00  0.000000E+00  3.036846E-02  1.036189E+03  2.000000E-01  1.100000E-17  1.100000E-17  1.100000E-17  0.000000E+00  1.000000E+00                                                                                                                                                                                                                                                                                                                                                                                                                                                                                                                                                                    
  2.550000E+03  2.500000E+02 -4.725000E+03  1.003355E+08  3.000496E+01  0.000000E+00  1.000000E+00  1.000000E+00  0.000000E+00  0.000000E+00  3.037662E-02  1.036232E+03  3.001156E-01  1.100000E-10  1.100000E-10  1.100000E-10  0.000000E+00  1.000000E+00                                                                                                                                                                                                                                                                                                                                                                                                                                                                                                                                                                    
  2.850000E+03  2.500000E+02 -4.725000E+03  1.002152E+08  3.000000E+01  0.000000E+00  1.000000E+00  1.000000E+00  0.000000E+00  0.000000E+00  3.036846E-02  1.036189E+03  2.000000E-01  1.100000E-17  1.100000E-17  1.100000E-17  0.000000E+00  1.000000E+00                                                                                                                                                                                                                                                                                                                                                                                                                                                                                                                                                                    
  2.500000E+02  2.500000E+02 -4.550000E+03  9.848511E+07  3.000084E+01  0.000000E+00  1.000000E+00  1.000000E+00  0.000000E+00  0.000000E+00  3.036984E-02  1.035544E+03  2.000178E-01  1.100000E-13  1.100000E-13  1.100000E-15  0.000000E+00  1.000000E+00                                                                                                                                                                                                                                                                                                                                                                                                                                                                                                                                                                    
  7.500000E+02  2.500000E+02 -4.550000E+03  9.848574E+07  3.000086E+01  0.000000E+00  1.000000E+00  1.000000E+00  0.000000E+00  0.000000E+00  3.036987E-02  1.035544E+03  2.000182E-01  1.100000E-13  1.100000E-13  1.100000E-15  0.000000E+00  1.000000E+00                                                                                                                                                                                                                                                                                                                                                                                                                                                                                                                                                                    
  1.250000E+03  2.500000E+02 -4.550000E+03  9.848838E+07  3.000094E+01  0.000000E+00  1.000000E+00  1.000000E+00  0.000000E+00  0.000000E+00  3.037000E-02  1.035545E+03  2.000199E-01  1.100000E-13  1.100000E-13  1.100000E-15  0.000000E+00  1.000000E+00                                                                                                                                                                                                                                                                                                                                                                                                                                                                                                                                                                    
  1.750000E+03  2.500000E+02 -4.550000E+03  9.849817E+07  3.000124E+01  0.000000E+00  1.000000E+00  1.000000E+00  0.000000E+00  0.000000E+00  3.037050E-02  1.035549E+03  2.000262E-01  1.100000E-13  1.100000E-13  1.100000E-15  0.000000E+00  1.000000E+00                                                                                                                                                                                                                                                                                                                                                                                                                                                                                                                                                                    
  2.250000E+03  2.500000E+02 -4.550000E+03  9.852827E+07  3.000216E+01  0.000000E+00  1.000000E+00  1.000000E+00  0.000000E+00  0.000000E+00  3.037201E-02  1.035559E+03  2.000455E-01  1.100000E-13  1.100000E-13  1.100000E-15  0.000000E+00  1.000000E+00                                                                                                                                                                                                                                                                                                                                                                                                                                                                                                                                                                    
  2.550000E+03  2.500000E+02 -4.550000E+03  9.855893E+07  3.000329E+01  0.000000E+00  1.000000E+00  1.000000E+00  0.000000E+00  0.000000E+00  3.037386E-02  1.035570E+03  3.000977E-01  1.100000E-10  1.100000E-10  1.100000E-10  0.000000E+00  1.000000E+00                                                                                                                                                                                                                                                                                                                                                                                                                                                                                                                                                                    
  2.850000E+03  2.500000E+02 -4.550000E+03  9.853744E+07  3.000244E+01  0.000000E+00  1.000000E+00  1.000000E+00  0.000000E+00  0.000000E+00  3.037248E-02  1.035563E+03  2.000513E-01  1.100000E-13  1.100000E-13  1.100000E-15  0.000000E+00  1.000000E+00                                                                                                                                                                                                                                                                                                                                                                                                                                                                                                                                                                    